ESCALE ; pCOOP file generated by LOBSTER. Energy is shifted such that the Fermi level lies at 0 eV.
         4          1        401  -8.40381e+00   1.16463e+01   1.62125e+00 
Average
No.1:Ru44->N66(2.0228578768513179)
No.2:Hf10->N66(3.0338824440248513)
No.3:N65->N66(1.1947419102287364)
-10.02506   0.00000   0.15039   0.00000   0.06111   0.00000  -0.00614   0.00000   0.39618
 -9.97494   0.00028   0.15040   0.00163   0.06119   0.00003  -0.00613  -0.00082   0.39614
 -9.92481   0.00009   0.15041   0.00052   0.06122   0.00001  -0.00613  -0.00026   0.39613
 -9.87469   0.00003   0.15041   0.00015   0.06123   0.00000  -0.00613  -0.00008   0.39613
 -9.82456   0.00001   0.15041   0.00004   0.06123   0.00000  -0.00613  -0.00002   0.39613
 -9.77444   0.00000   0.15041   0.00001   0.06123   0.00000  -0.00613  -0.00000   0.39613
 -9.72431   0.00000   0.15041   0.00000   0.06123   0.00000  -0.00613  -0.00000   0.39613
 -9.67419   0.00000   0.15041   0.00000   0.06123   0.00000  -0.00613  -0.00000   0.39613
 -9.62406   0.00000   0.15041   0.00000   0.06123   0.00000  -0.00613  -0.00000   0.39613
 -9.57393   0.00000   0.15041   0.00000   0.06123   0.00000  -0.00613  -0.00000   0.39613
 -9.52381   0.00000   0.15041   0.00000   0.06123   0.00000  -0.00613  -0.00000   0.39613
 -9.47368   0.00000   0.15041   0.00000   0.06123   0.00000  -0.00613  -0.00000   0.39613
 -9.42356   0.00000   0.15041   0.00000   0.06123   0.00000  -0.00613  -0.00000   0.39613
 -9.37343   0.00000   0.15041   0.00000   0.06123   0.00000  -0.00613  -0.00000   0.39613
 -9.32331   0.00000   0.15041   0.00000   0.06123   0.00000  -0.00613   0.00000   0.39613
 -9.27318   0.00000   0.15041   0.00000   0.06123   0.00000  -0.00613   0.00000   0.39613
 -9.22306   0.00000   0.15041   0.00000   0.06123   0.00000  -0.00613   0.00000   0.39613
 -9.17293   0.00000   0.15041   0.00000   0.06123   0.00000  -0.00613   0.00000   0.39613
 -9.12281   0.00000   0.15041   0.00000   0.06123   0.00000  -0.00613   0.00000   0.39613
 -9.07268   0.00000   0.15041   0.00000   0.06123   0.00000  -0.00613   0.00000   0.39613
 -9.02256   0.00000   0.15041   0.00000   0.06123   0.00000  -0.00613   0.00000   0.39613
 -8.97243   0.00000   0.15041   0.00000   0.06123   0.00000  -0.00613   0.00000   0.39613
 -8.92231   0.00000   0.15041   0.00000   0.06123   0.00000  -0.00613   0.00000   0.39613
 -8.87218   0.00000   0.15041   0.00000   0.06123   0.00000  -0.00613   0.00000   0.39613
 -8.82206   0.00000   0.15041   0.00000   0.06123   0.00000  -0.00613   0.00001   0.39613
 -8.77193   0.00001   0.15041   0.00001   0.06123   0.00000  -0.00613   0.00003   0.39613
 -8.72180   0.00004   0.15041   0.00003   0.06123   0.00001  -0.00613   0.00008   0.39613
 -8.67168   0.00010   0.15041   0.00007   0.06124   0.00002  -0.00613   0.00021   0.39614
 -8.62155   0.00023   0.15043   0.00016   0.06124   0.00004  -0.00613   0.00049   0.39617
 -8.57143   0.00049   0.15045   0.00036   0.06126   0.00009  -0.00613   0.00104   0.39622
 -8.52130   0.00096   0.15050   0.00070   0.06130   0.00017  -0.00612   0.00202   0.39632
 -8.47118   0.00172   0.15059   0.00126   0.06136   0.00030  -0.00610   0.00359   0.39650
 -8.42105   0.00284   0.15073   0.00210   0.06146   0.00050  -0.00608   0.00591   0.39680
 -8.37093   0.00438   0.15095   0.00329   0.06163   0.00075  -0.00604   0.00910   0.39725
 -8.32080   0.00643   0.15127   0.00492   0.06188   0.00107  -0.00599   0.01329   0.39792
 -8.27068   0.00913   0.15173   0.00716   0.06223   0.00147  -0.00591   0.01878   0.39886
 -8.22055   0.01283   0.15237   0.01030   0.06275   0.00198  -0.00581   0.02620   0.40017
 -8.17043   0.01806   0.15328   0.01486   0.06350   0.00267  -0.00568   0.03666   0.40201
 -8.12030   0.02560   0.15456   0.02152   0.06457   0.00363  -0.00550   0.05167   0.40460
 -8.07018   0.03624   0.15638   0.03099   0.06613   0.00495  -0.00525   0.07279   0.40825
 -8.02005   0.05040   0.15890   0.04369   0.06832   0.00666  -0.00491   0.10085   0.41330
 -7.96992   0.06768   0.16229   0.05930   0.07129   0.00872  -0.00448   0.13503   0.42007
 -7.91980   0.08637   0.16662   0.07630   0.07511   0.01087  -0.00393   0.17193   0.42869
 -7.86967   0.10343   0.17181   0.09199   0.07973   0.01276  -0.00329   0.20555   0.43899
 -7.81955   0.11516   0.17758   0.10298   0.08489   0.01395  -0.00259   0.22856   0.45045
 -7.76942   0.11845   0.18352   0.10638   0.09022   0.01411  -0.00189   0.23488   0.46222
 -7.71930   0.11219   0.18914   0.10107   0.09529   0.01316  -0.00123   0.22234   0.47337
 -7.66917   0.09785   0.19405   0.08831   0.09971   0.01133  -0.00066   0.19390   0.48309
 -7.61905   0.07891   0.19800   0.07121   0.10328   0.00905  -0.00021   0.15647   0.49093
 -7.56892   0.05940   0.20098   0.05343   0.10596   0.00678   0.00013   0.11800   0.49684
 -7.51880   0.04248   0.20311   0.03783   0.10786   0.00488   0.00038   0.08472   0.50109
 -7.46867   0.02975   0.20460   0.02583   0.10915   0.00354   0.00056   0.05988   0.50409
 -7.41855   0.02157   0.20568   0.01757   0.11003   0.00281   0.00070   0.04432   0.50631
 -7.36842   0.01776   0.20657   0.01253   0.11066   0.00271   0.00083   0.03804   0.50822
 -7.31830   0.01840   0.20749   0.01015   0.11117   0.00331   0.00100   0.04175   0.51031
 -7.26817   0.02421   0.20871   0.01007   0.11167   0.00478   0.00124   0.05777   0.51321
 -7.21805   0.03648   0.21054   0.01221   0.11229   0.00736   0.00161   0.08986   0.51771
 -7.16792   0.05644   0.21336   0.01654   0.11311   0.01126   0.00217   0.14152   0.52481
 -7.11779   0.08404   0.21758   0.02281   0.11426   0.01641   0.00299   0.21292   0.53548
 -7.06767   0.11668   0.22343   0.03024   0.11577   0.02220   0.00411   0.29762   0.55040
 -7.01754   0.14877   0.23088   0.03748   0.11765   0.02748   0.00548   0.38135   0.56951
 -6.96742   0.17294   0.23955   0.04286   0.11980   0.03083   0.00703   0.44513   0.59183
 -6.91729   0.18280   0.24871   0.04492   0.12205   0.03118   0.00859   0.47229   0.61550
 -6.86717   0.17573   0.25752   0.04306   0.12421   0.02830   0.01001   0.45584   0.63835
 -6.81704   0.15413   0.26525   0.03778   0.12610   0.02295   0.01116   0.40166   0.65848
 -6.76692   0.12407   0.27147   0.03041   0.12763   0.01653   0.01199   0.32528   0.67479
 -6.71679   0.09257   0.27611   0.02254   0.12876   0.01047   0.01251   0.24471   0.68705
 -6.66667   0.06491   0.27936   0.01543   0.12953   0.00569   0.01280   0.17360   0.69575
 -6.61654   0.04352   0.28154   0.00975   0.13002   0.00248   0.01292   0.11832   0.70168
 -6.56642   0.02844   0.28297   0.00564   0.13030   0.00064   0.01296   0.07905   0.70565
 -6.51629   0.01845   0.28389   0.00289   0.13045  -0.00025   0.01294   0.05273   0.70829
 -6.46617   0.01212   0.28450   0.00121   0.13051  -0.00057   0.01291   0.03572   0.71008
 -6.41604   0.00833   0.28492   0.00041   0.13053  -0.00059   0.01289   0.02518   0.71134
 -6.36591   0.00646   0.28524   0.00049   0.13055  -0.00043   0.01286   0.01932   0.71231
 -6.31579   0.00622   0.28555   0.00185   0.13065  -0.00014   0.01286   0.01695   0.71316
 -6.26566   0.00757   0.28593   0.00538   0.13092   0.00030   0.01287   0.01703   0.71401
 -6.21554   0.01052   0.28646   0.01237   0.13154   0.00091   0.01292   0.01829   0.71493
 -6.16541   0.01494   0.28721   0.02409   0.13274   0.00166   0.01300   0.01908   0.71589
 -6.11529   0.02036   0.28823   0.04080   0.13479   0.00248   0.01312   0.01779   0.71678
 -6.06516   0.02580   0.28952   0.06083   0.13784   0.00321   0.01329   0.01337   0.71745
 -6.01504   0.02996   0.29103   0.08020   0.14186   0.00365   0.01347   0.00604   0.71775
 -5.96491   0.03157   0.29261   0.09376   0.14656   0.00364   0.01365  -0.00268   0.71762
 -5.91479   0.02999   0.29411   0.09733   0.15144   0.00312   0.01381  -0.01050   0.71709
 -5.86466   0.02555   0.29539   0.08982   0.15594   0.00223   0.01392  -0.01540   0.71632
 -5.81454   0.01946   0.29637   0.07376   0.15964   0.00121   0.01398  -0.01660   0.71549
 -5.76441   0.01320   0.29703   0.05394   0.16234   0.00033   0.01400  -0.01466   0.71475
 -5.71429   0.00795   0.29743   0.03514   0.16410  -0.00026   0.01398  -0.01102   0.71420
 -5.66416   0.00423   0.29764   0.02040   0.16512  -0.00053   0.01396  -0.00717   0.71384
 -5.61404   0.00198   0.29774   0.01055   0.16565  -0.00056   0.01393  -0.00406   0.71364
 -5.56391   0.00080   0.29778   0.00484   0.16589  -0.00046   0.01391  -0.00200   0.71354
 -5.51378   0.00026   0.29779   0.00195   0.16599  -0.00031   0.01389  -0.00085   0.71350
 -5.46366   0.00006   0.29780   0.00068   0.16603  -0.00019   0.01388  -0.00030   0.71348
 -5.41353   0.00000   0.29780   0.00019   0.16604  -0.00010   0.01387  -0.00008   0.71348
 -5.36341  -0.00001   0.29779   0.00003   0.16604  -0.00005   0.01387  -0.00001   0.71348
 -5.31328  -0.00001   0.29779  -0.00000   0.16604  -0.00002   0.01387   0.00000   0.71348
 -5.26316  -0.00000   0.29779  -0.00001   0.16604  -0.00001   0.01387   0.00000   0.71348
 -5.21303  -0.00000   0.29779  -0.00000   0.16604  -0.00000   0.01387   0.00000   0.71348
 -5.16291  -0.00000   0.29779  -0.00000   0.16604  -0.00000   0.01387   0.00000   0.71348
 -5.11278  -0.00000   0.29779  -0.00000   0.16604  -0.00000   0.01387   0.00000   0.71348
 -5.06266  -0.00000   0.29779  -0.00000   0.16604  -0.00000   0.01387   0.00000   0.71348
 -5.01253  -0.00000   0.29779  -0.00001   0.16604  -0.00001   0.01387   0.00001   0.71348
 -4.96241  -0.00001   0.29779  -0.00003   0.16603  -0.00002   0.01387   0.00002   0.71348
 -4.91228  -0.00002   0.29779  -0.00006   0.16603  -0.00004   0.01387   0.00005   0.71348
 -4.86216  -0.00003   0.29779  -0.00012   0.16602  -0.00009   0.01386   0.00012   0.71349
 -4.81203  -0.00006   0.29779  -0.00022   0.16601  -0.00019   0.01385   0.00024   0.71350
 -4.76190  -0.00009   0.29778  -0.00036   0.16600  -0.00036   0.01383   0.00044   0.71352
 -4.71178  -0.00013   0.29778  -0.00056   0.16597  -0.00061   0.01380   0.00077   0.71356
 -4.66165  -0.00017   0.29777  -0.00081   0.16593  -0.00097   0.01376   0.00126   0.71362
 -4.61153  -0.00020   0.29776  -0.00108   0.16587  -0.00143   0.01368   0.00191   0.71372
 -4.56140  -0.00020   0.29775  -0.00134   0.16580  -0.00198   0.01358   0.00271   0.71385
 -4.51128  -0.00018   0.29774  -0.00155   0.16573  -0.00258   0.01346   0.00358   0.71403
 -4.46115  -0.00014   0.29773  -0.00165   0.16564  -0.00318   0.01330   0.00440   0.71425
 -4.41103  -0.00010   0.29773  -0.00163   0.16556  -0.00375   0.01311   0.00508   0.71451
 -4.36090  -0.00006   0.29772  -0.00147   0.16549  -0.00426   0.01289   0.00557   0.71479
 -4.31078  -0.00002   0.29772  -0.00121   0.16543  -0.00470   0.01266   0.00585   0.71508
 -4.26065   0.00002   0.29772  -0.00087   0.16538  -0.00502   0.01241   0.00596   0.71538
 -4.21053   0.00006   0.29773  -0.00051   0.16536  -0.00521   0.01215   0.00591   0.71568
 -4.16040   0.00011   0.29773  -0.00017   0.16535  -0.00522   0.01188   0.00571   0.71596
 -4.11028   0.00016   0.29774   0.00013   0.16536  -0.00503   0.01163   0.00536   0.71623
 -4.06015   0.00020   0.29775   0.00036   0.16537  -0.00466   0.01140   0.00491   0.71648
 -4.01003   0.00025   0.29776   0.00050   0.16540  -0.00419   0.01119   0.00443   0.71670
 -3.95990   0.00030   0.29778   0.00054   0.16543  -0.00369   0.01100   0.00404   0.71690
 -3.90977   0.00035   0.29779   0.00048   0.16545  -0.00325   0.01084   0.00381   0.71709
 -3.85965   0.00039   0.29781   0.00028   0.16547  -0.00292   0.01069   0.00380   0.71728
 -3.80952   0.00040   0.29783  -0.00005   0.16546  -0.00271   0.01056   0.00395   0.71748
 -3.75940   0.00036   0.29785  -0.00051   0.16544  -0.00262   0.01043   0.00421   0.71769
 -3.70927   0.00026   0.29787  -0.00104   0.16539  -0.00262   0.01030   0.00446   0.71791
 -3.65915   0.00010   0.29787  -0.00162   0.16530  -0.00269   0.01016   0.00462   0.71815
 -3.60902  -0.00011   0.29786  -0.00220   0.16519  -0.00279   0.01002   0.00465   0.71838
 -3.55890  -0.00039   0.29785  -0.00276   0.16506  -0.00290   0.00988   0.00450   0.71860
 -3.50877  -0.00072   0.29781  -0.00331   0.16489  -0.00299   0.00973   0.00415   0.71881
 -3.45865  -0.00110   0.29775  -0.00382   0.16470  -0.00306   0.00957   0.00359   0.71899
 -3.40852  -0.00151   0.29768  -0.00427   0.16448  -0.00309   0.00942   0.00282   0.71913
 -3.35840  -0.00193   0.29758  -0.00458   0.16425  -0.00309   0.00926   0.00187   0.71923
 -3.30827  -0.00233   0.29746  -0.00473   0.16402  -0.00307   0.00911   0.00082   0.71927
 -3.25815  -0.00266   0.29733  -0.00469   0.16378  -0.00305   0.00896  -0.00024   0.71926
 -3.20802  -0.00293   0.29718  -0.00451   0.16356  -0.00304   0.00880  -0.00123   0.71920
 -3.15789  -0.00317   0.29703  -0.00426   0.16334  -0.00308   0.00865  -0.00216   0.71909
 -3.10777  -0.00343   0.29685  -0.00399   0.16314  -0.00323   0.00849  -0.00307   0.71893
 -3.05764  -0.00376   0.29667  -0.00368   0.16296  -0.00356   0.00831  -0.00405   0.71873
 -3.00752  -0.00416   0.29646  -0.00320   0.16280  -0.00410   0.00810  -0.00518   0.71847
 -2.95739  -0.00458   0.29623  -0.00236   0.16268  -0.00484   0.00786  -0.00653   0.71814
 -2.90727  -0.00494   0.29598  -0.00099   0.16263  -0.00572   0.00757  -0.00811   0.71774
 -2.85714  -0.00520   0.29572   0.00097   0.16268  -0.00661   0.00724  -0.00995   0.71724
 -2.80702  -0.00534   0.29545   0.00335   0.16285  -0.00736   0.00687  -0.01202   0.71664
 -2.75689  -0.00542   0.29518   0.00580   0.16314  -0.00783   0.00648  -0.01423   0.71592
 -2.70677  -0.00550   0.29490   0.00785   0.16353  -0.00795   0.00608  -0.01641   0.71510
 -2.65664  -0.00566   0.29462   0.00904   0.16398  -0.00772   0.00570  -0.01829   0.71418
 -2.60652  -0.00594   0.29432   0.00916   0.16444  -0.00727   0.00533  -0.01972   0.71319
 -2.55639  -0.00639   0.29400   0.00826   0.16486  -0.00675   0.00499  -0.02069   0.71216
 -2.50627  -0.00700   0.29365   0.00663   0.16519  -0.00628   0.00468  -0.02134   0.71109
 -2.45614  -0.00770   0.29327   0.00470   0.16543  -0.00590   0.00438  -0.02191   0.70999
 -2.40602  -0.00843   0.29284   0.00287   0.16557  -0.00553   0.00410  -0.02264   0.70886
 -2.35589  -0.00912   0.29239   0.00142   0.16564  -0.00506   0.00385  -0.02373   0.70767
 -2.30576  -0.00977   0.29190   0.00039   0.16566  -0.00441   0.00363  -0.02529   0.70640
 -2.25564  -0.01041   0.29137  -0.00038   0.16564  -0.00361   0.00345  -0.02724   0.70503
 -2.20551  -0.01110   0.29082  -0.00124   0.16558  -0.00279   0.00331  -0.02929   0.70356
 -2.15539  -0.01186   0.29022  -0.00245   0.16546  -0.00207   0.00321  -0.03106   0.70201
 -2.10526  -0.01265   0.28959  -0.00407   0.16525  -0.00158   0.00313  -0.03229   0.70039
 -2.05514  -0.01343   0.28892  -0.00585   0.16496  -0.00136   0.00306  -0.03308   0.69873
 -2.00501  -0.01419   0.28820  -0.00738   0.16459  -0.00141   0.00299  -0.03378   0.69704
 -1.95489  -0.01493   0.28746  -0.00825   0.16417  -0.00167   0.00290  -0.03487   0.69529
 -1.90476  -0.01565   0.28667  -0.00823   0.16376  -0.00211   0.00280  -0.03662   0.69345
 -1.85464  -0.01632   0.28585  -0.00723   0.16340  -0.00265   0.00267  -0.03908   0.69150
 -1.80451  -0.01687   0.28501  -0.00525   0.16314  -0.00325   0.00250  -0.04210   0.68938
 -1.75439  -0.01724   0.28414  -0.00235   0.16302  -0.00382   0.00231  -0.04556   0.68710
 -1.70426  -0.01743   0.28327   0.00126   0.16308  -0.00427   0.00210  -0.04927   0.68463
 -1.65414  -0.01744   0.28240   0.00520   0.16334  -0.00455   0.00187  -0.05296   0.68198
 -1.60401  -0.01730   0.28153   0.00894   0.16379  -0.00465   0.00164  -0.05620   0.67916
 -1.55388  -0.01706   0.28067   0.01195   0.16439  -0.00460   0.00141  -0.05853   0.67623
 -1.50376  -0.01677   0.27983   0.01384   0.16508  -0.00445   0.00118  -0.05969   0.67323
 -1.45363  -0.01652   0.27900   0.01440   0.16580  -0.00426   0.00097  -0.05969   0.67024
 -1.40351  -0.01641   0.27818   0.01359   0.16649  -0.00404   0.00077  -0.05878   0.66729
 -1.35338  -0.01655   0.27735   0.01147   0.16706  -0.00380   0.00058  -0.05731   0.66442
 -1.30326  -0.01699   0.27650   0.00823   0.16747  -0.00350   0.00040  -0.05569   0.66163
 -1.25313  -0.01776   0.27561   0.00419   0.16768  -0.00311   0.00024  -0.05437   0.65890
 -1.20301  -0.01890   0.27466  -0.00024   0.16767  -0.00259   0.00011  -0.05386   0.65621
 -1.15288  -0.02038   0.27364  -0.00472   0.16743  -0.00195   0.00002  -0.05447   0.65347
 -1.10276  -0.02218   0.27253  -0.00913   0.16698  -0.00123  -0.00004  -0.05618   0.65066
 -1.05263  -0.02420   0.27132  -0.01351   0.16630  -0.00052  -0.00007  -0.05856   0.64772
 -1.00251  -0.02631   0.27000  -0.01799   0.16540   0.00006  -0.00007  -0.06099   0.64467
 -0.95238  -0.02836   0.26858  -0.02259   0.16427   0.00044  -0.00005  -0.06292   0.64151
 -0.90226  -0.03021   0.26706  -0.02712   0.16291   0.00059  -0.00002  -0.06410   0.63830
 -0.85213  -0.03174   0.26547  -0.03122   0.16134   0.00054   0.00001  -0.06454   0.63506
 -0.80201  -0.03283   0.26383  -0.03460   0.15961   0.00037   0.00003  -0.06425   0.63184
 -0.75188  -0.03337   0.26215  -0.03726   0.15774   0.00014   0.00004  -0.06300   0.62869
 -0.70175  -0.03333   0.26048  -0.03952   0.15576  -0.00008   0.00003  -0.06038   0.62566
 -0.65163  -0.03273   0.25884  -0.04192   0.15366  -0.00027   0.00002  -0.05600   0.62285
 -0.60150  -0.03171   0.25725  -0.04490   0.15141  -0.00039  -0.00000  -0.04985   0.62035
 -0.55138  -0.03049   0.25572  -0.04857   0.14897  -0.00046  -0.00002  -0.04243   0.61823
 -0.50125  -0.02926   0.25426  -0.05270   0.14633  -0.00046  -0.00005  -0.03464   0.61649
 -0.45113  -0.02818   0.25285  -0.05677   0.14348  -0.00041  -0.00007  -0.02735   0.61512
 -0.40100  -0.02725   0.25148  -0.06026   0.14046  -0.00032  -0.00008  -0.02116   0.61406
 -0.35088  -0.02640   0.25016  -0.06267   0.13732  -0.00023  -0.00010  -0.01630   0.61324
 -0.30075  -0.02552   0.24888  -0.06368   0.13413  -0.00020  -0.00011  -0.01268   0.61261
 -0.25063  -0.02450   0.24765  -0.06317   0.13096  -0.00029  -0.00012  -0.01004   0.61210
 -0.20050  -0.02330   0.24648  -0.06124   0.12789  -0.00060  -0.00015  -0.00808   0.61170
 -0.15038  -0.02197   0.24538  -0.05818   0.12498  -0.00115  -0.00021  -0.00658   0.61137
 -0.10025  -0.02059   0.24435  -0.05438   0.12225  -0.00192  -0.00030  -0.00548   0.61109
 -0.05013  -0.01930   0.24338  -0.05015   0.11974  -0.00280  -0.00044  -0.00496   0.61085
  0.00000  -0.01825   0.24247  -0.04570   0.11745  -0.00364  -0.00063  -0.00539   0.61057
  0.05013  -0.01752   0.24159  -0.04117   0.11538  -0.00429  -0.00084  -0.00709   0.61022
  0.10025  -0.01716   0.24073  -0.03667   0.11355  -0.00464  -0.00107  -0.01017   0.60971
  0.15038  -0.01717   0.23987  -0.03234   0.11193  -0.00469  -0.00131  -0.01447   0.60898
  0.20050  -0.01752   0.23899  -0.02840   0.11050  -0.00450  -0.00153  -0.01967   0.60800
  0.25063  -0.01827   0.23807  -0.02510   0.10924  -0.00417  -0.00174  -0.02552   0.60672
  0.30075  -0.01950   0.23710  -0.02277   0.10810  -0.00380  -0.00193  -0.03192   0.60512
  0.35088  -0.02131   0.23603  -0.02173   0.10701  -0.00341  -0.00210  -0.03878   0.60318
  0.40100  -0.02366   0.23484  -0.02214   0.10590  -0.00296  -0.00225  -0.04587   0.60088
  0.45113  -0.02626   0.23353  -0.02386   0.10471  -0.00237  -0.00237  -0.05254   0.59824
  0.50125  -0.02863   0.23209  -0.02642   0.10338  -0.00161  -0.00245  -0.05786   0.59534
  0.55138  -0.03023   0.23058  -0.02913   0.10192  -0.00068  -0.00249  -0.06088   0.59229
  0.60150  -0.03064   0.22904  -0.03130   0.10035   0.00031  -0.00247  -0.06093   0.58924
  0.65163  -0.02970   0.22755  -0.03239   0.09873   0.00122  -0.00241  -0.05794   0.58633
  0.70175  -0.02757   0.22617  -0.03213   0.09712   0.00187  -0.00232  -0.05245   0.58370
  0.75188  -0.02463   0.22493  -0.03057   0.09559   0.00216  -0.00221  -0.04548   0.58142
  0.80201  -0.02143   0.22386  -0.02807   0.09418   0.00206  -0.00211  -0.03829   0.57950
  0.85213  -0.01853   0.22293  -0.02519   0.09292   0.00167  -0.00202  -0.03208   0.57790
  0.90226  -0.01640   0.22211  -0.02249   0.09179   0.00114  -0.00196  -0.02783   0.57650
  0.95238  -0.01533   0.22134  -0.02037   0.09077   0.00063  -0.00193  -0.02625   0.57519
  1.00251  -0.01548   0.22056  -0.01894   0.08982   0.00026  -0.00192  -0.02776   0.57379
  1.05263  -0.01689   0.21972  -0.01811   0.08891   0.00010  -0.00192  -0.03265   0.57216
  1.10276  -0.01956   0.21874  -0.01772   0.08802   0.00014  -0.00191  -0.04108   0.57010
  1.15288  -0.02340   0.21756  -0.01764   0.08714   0.00037  -0.00189  -0.05293   0.56745
  1.20301  -0.02821   0.21615  -0.01780   0.08625   0.00076  -0.00185  -0.06760   0.56406
  1.25313  -0.03358   0.21447  -0.01809   0.08534   0.00124  -0.00179  -0.08388   0.55985
  1.30326  -0.03894   0.21252  -0.01838   0.08442   0.00175  -0.00170  -0.10019   0.55483
  1.35338  -0.04385   0.21032  -0.01849   0.08349   0.00225  -0.00159  -0.11530   0.54905
  1.40351  -0.04828   0.20790  -0.01840   0.08257   0.00275  -0.00145  -0.12919   0.54257
  1.45363  -0.05291   0.20525  -0.01841   0.08165   0.00328  -0.00129  -0.14360   0.53538
  1.50376  -0.05897   0.20229  -0.01914   0.08069   0.00392  -0.00109  -0.16170   0.52727
  1.55388  -0.06780   0.19889  -0.02137   0.07962   0.00469  -0.00086  -0.18670   0.51791
  1.60401  -0.07997   0.19488  -0.02564   0.07833   0.00551  -0.00058  -0.21979   0.50690
  1.65414  -0.09472   0.19013  -0.03187   0.07673   0.00616  -0.00027  -0.25845   0.49394
  1.70426  -0.10976   0.18463  -0.03928   0.07477   0.00629   0.00005  -0.29628   0.47909
  1.75439  -0.12201   0.17852  -0.04667   0.07243   0.00555   0.00032  -0.32493   0.46280
  1.80451  -0.12880   0.17206  -0.05284   0.06978   0.00378   0.00051  -0.33734   0.44589
  1.85464  -0.12888   0.16560  -0.05706   0.06692   0.00110   0.00057  -0.33069   0.42932
  1.90476  -0.12289   0.15944  -0.05918   0.06395  -0.00211   0.00046  -0.30740   0.41391
  1.95489  -0.11299   0.15378  -0.05957   0.06096  -0.00543   0.00019  -0.27396   0.40018
  2.00501  -0.10207   0.14866  -0.05901   0.05801  -0.00860  -0.00024  -0.23860   0.38822
  2.05514  -0.09309   0.14399  -0.05856   0.05507  -0.01169  -0.00083  -0.20901   0.37774
  2.10526  -0.08857   0.13956  -0.05945   0.05209  -0.01498  -0.00158  -0.19128   0.36815
  2.15539  -0.09049   0.13502  -0.06296   0.04894  -0.01880  -0.00252  -0.18971   0.35864
  2.20551  -0.10020   0.13000  -0.07009   0.04542  -0.02335  -0.00369  -0.20718   0.34826
  2.25564  -0.11826   0.12407  -0.08120   0.04135  -0.02860  -0.00512  -0.24497   0.33598
  2.30576  -0.14411   0.11685  -0.09590   0.03654  -0.03438  -0.00685  -0.30206   0.32084
  2.35589  -0.17576   0.10803  -0.11297   0.03088  -0.04040  -0.00887  -0.37392   0.30209
  2.40602  -0.20961   0.09753  -0.13062   0.02434  -0.04636  -0.01120  -0.45185   0.27944
  2.45614  -0.24075   0.08546  -0.14678   0.01698  -0.05190  -0.01380  -0.52356   0.25320
  2.50627  -0.26388   0.07223  -0.15948   0.00898  -0.05674  -0.01664  -0.57542   0.22436
  2.55639  -0.27465   0.05847  -0.16715   0.00060  -0.06075  -0.01969  -0.59605   0.19448
  2.60652  -0.27107   0.04488  -0.16902  -0.00787  -0.06409  -0.02290  -0.58010   0.16540
  2.65664  -0.25433   0.03213  -0.16537  -0.01616  -0.06712  -0.02626  -0.53049   0.13881
  2.70677  -0.22836   0.02068  -0.15736  -0.02404  -0.07003  -0.02977  -0.45769   0.11587
  2.75689  -0.19836   0.01074  -0.14647  -0.03139  -0.07259  -0.03341  -0.37602   0.09702
  2.80702  -0.16891   0.00227  -0.13391  -0.03810  -0.07400  -0.03712  -0.29883   0.08204
  2.85714  -0.14285  -0.00489  -0.12036  -0.04413  -0.07337  -0.04080  -0.23482   0.07027
  2.90727  -0.12123  -0.01096  -0.10627  -0.04946  -0.07033  -0.04432  -0.18708   0.06090
  2.95739  -0.10399  -0.01618  -0.09227  -0.05408  -0.06542  -0.04760  -0.15429   0.05316
  3.00752  -0.09071  -0.02072  -0.07938  -0.05806  -0.05992  -0.05061  -0.13282   0.04650
  3.05764  -0.08082  -0.02477  -0.06868  -0.06150  -0.05521  -0.05338  -0.11857   0.04056
  3.10777  -0.07371  -0.02847  -0.06093  -0.06456  -0.05200  -0.05598  -0.10820   0.03514
  3.15789  -0.06867  -0.03191  -0.05622  -0.06738  -0.05004  -0.05849  -0.09974   0.03014
  3.20802  -0.06504  -0.03517  -0.05409  -0.07009  -0.04848  -0.06092  -0.09255   0.02550
  3.25815  -0.06238  -0.03830  -0.05379  -0.07278  -0.04643  -0.06325  -0.08692   0.02114
  3.30827  -0.06050  -0.04133  -0.05454  -0.07552  -0.04353  -0.06543  -0.08342   0.01696
  3.35840  -0.05939  -0.04431  -0.05570  -0.07831  -0.04002  -0.06744  -0.08245   0.01283
  3.40852  -0.05912  -0.04727  -0.05687  -0.08116  -0.03658  -0.06927  -0.08390   0.00862
  3.45865  -0.05964  -0.05026  -0.05793  -0.08406  -0.03388  -0.07097  -0.08713   0.00425
  3.50877  -0.06075  -0.05330  -0.05892  -0.08702  -0.03235  -0.07259  -0.09098  -0.00031
  3.55890  -0.06204  -0.05641  -0.05996  -0.09002  -0.03202  -0.07419  -0.09413  -0.00502
  3.60902  -0.06308  -0.05958  -0.06105  -0.09308  -0.03262  -0.07583  -0.09557  -0.00981
  3.65915  -0.06359  -0.06276  -0.06194  -0.09619  -0.03368  -0.07752  -0.09515  -0.01458
  3.70927  -0.06354  -0.06595  -0.06226  -0.09931  -0.03476  -0.07926  -0.09358  -0.01928
  3.75940  -0.06316  -0.06911  -0.06181  -0.10241  -0.03561  -0.08104  -0.09205  -0.02389
  3.80952  -0.06293  -0.07227  -0.06089  -0.10546  -0.03621  -0.08286  -0.09171  -0.02849
  3.85965  -0.06353  -0.07545  -0.06038  -0.10849  -0.03678  -0.08470  -0.09342  -0.03317
  3.90977  -0.06565  -0.07874  -0.06138  -0.11156  -0.03760  -0.08659  -0.09798  -0.03808
  3.95990  -0.06992  -0.08225  -0.06458  -0.11480  -0.03877  -0.08853  -0.10639  -0.04341
  4.01003  -0.07656  -0.08609  -0.06974  -0.11830  -0.04010  -0.09054  -0.11984  -0.04942
  4.06015  -0.08531  -0.09036  -0.07565  -0.12209  -0.04107  -0.09260  -0.13921  -0.05640
  4.11028  -0.09540  -0.09514  -0.08065  -0.12613  -0.04103  -0.09466  -0.16452  -0.06464
  4.16040  -0.10579  -0.10045  -0.08340  -0.13031  -0.03949  -0.09664  -0.19447  -0.07439
  4.21053  -0.11549  -0.10623  -0.08352  -0.13450  -0.03634  -0.09846  -0.22660  -0.08575
  4.26065  -0.12381  -0.11244  -0.08169  -0.13859  -0.03193  -0.10006  -0.25780  -0.09867
  4.31078  -0.13052  -0.11898  -0.07934  -0.14257  -0.02692  -0.10141  -0.28531  -0.11297
  4.36090  -0.13593  -0.12580  -0.07811  -0.14648  -0.02210  -0.10251  -0.30757  -0.12839
  4.41103  -0.14072  -0.13285  -0.07938  -0.15046  -0.01814  -0.10342  -0.32464  -0.14466
  4.46115  -0.14570  -0.14015  -0.08370  -0.15466  -0.01547  -0.10420  -0.33794  -0.16160
  4.51128  -0.15140  -0.14774  -0.09059  -0.15920  -0.01422  -0.10491  -0.34939  -0.17912
  4.56140  -0.15789  -0.15566  -0.09861  -0.16414  -0.01422  -0.10563  -0.36084  -0.19720
  4.61153  -0.16493  -0.16392  -0.10587  -0.16945  -0.01505  -0.10638  -0.37386  -0.21594
  4.66165  -0.17217  -0.17255  -0.11076  -0.17500  -0.01619  -0.10719  -0.38957  -0.23547
  4.71178  -0.17928  -0.18154  -0.11257  -0.18064  -0.01715  -0.10805  -0.40813  -0.25593
  4.76190  -0.18585  -0.19086  -0.11170  -0.18624  -0.01759  -0.10893  -0.42826  -0.27740
  4.81203  -0.19145  -0.20045  -0.10955  -0.19173  -0.01735  -0.10980  -0.44745  -0.29982
  4.86216  -0.19587  -0.21027  -0.10813  -0.19715  -0.01639  -0.11062  -0.46309  -0.32304
  4.91228  -0.19934  -0.22026  -0.10958  -0.20265  -0.01470  -0.11136  -0.47376  -0.34678
  4.96241  -0.20241  -0.23041  -0.11550  -0.20843  -0.01225  -0.11198  -0.47949  -0.37082
  5.01253  -0.20549  -0.24071  -0.12644  -0.21477  -0.00902  -0.11243  -0.48102  -0.39493
  5.06266  -0.20847  -0.25116  -0.14167  -0.22187  -0.00508  -0.11268  -0.47867  -0.41892
  5.11278  -0.21080  -0.26173  -0.15937  -0.22986  -0.00069  -0.11272  -0.47233  -0.44260
  5.16291  -0.21211  -0.27236  -0.17723  -0.23875   0.00367  -0.11253  -0.46275  -0.46579
  5.21303  -0.21290  -0.28303  -0.19307  -0.24842   0.00736  -0.11216  -0.45299  -0.48850
  5.26316  -0.21474  -0.29379  -0.20552  -0.25873   0.00984  -0.11167  -0.44856  -0.51098
  5.31328  -0.21977  -0.30481  -0.21457  -0.26948   0.01082  -0.11113  -0.45556  -0.53382
  5.36341  -0.22975  -0.31633  -0.22155  -0.28059   0.01038  -0.11061  -0.47809  -0.55778
  5.41353  -0.24519  -0.32862  -0.22828  -0.29203   0.00897  -0.11016  -0.51627  -0.58366
  5.46366  -0.26496  -0.34190  -0.23588  -0.30385   0.00715  -0.10980  -0.56614  -0.61204
  5.51378  -0.28640  -0.35625  -0.24373  -0.31607   0.00532  -0.10953  -0.62079  -0.64316
  5.56391  -0.30598  -0.37159  -0.24955  -0.32858   0.00362  -0.10935  -0.67200  -0.67684
  5.61404  -0.32018  -0.38764  -0.25058  -0.34114   0.00207  -0.10925  -0.71201  -0.71253
  5.66416  -0.32661  -0.40401  -0.24506  -0.35342   0.00072  -0.10921  -0.73549  -0.74940
  5.71429  -0.32509  -0.42031  -0.23317  -0.36511  -0.00026  -0.10923  -0.74182  -0.78658
  5.76441  -0.31815  -0.43625  -0.21706  -0.37599  -0.00083  -0.10927  -0.73655  -0.82350
  5.81454  -0.31061  -0.45182  -0.20005  -0.38602  -0.00122  -0.10933  -0.73055  -0.86012
  5.86466  -0.30800  -0.46726  -0.18580  -0.39533  -0.00195  -0.10943  -0.73624  -0.89703
  5.91479  -0.31434  -0.48302  -0.17733  -0.40422  -0.00345  -0.10960  -0.76224  -0.93523
  5.96491  -0.33034  -0.49958  -0.17619  -0.41305  -0.00577  -0.10989  -0.80905  -0.97579
  6.01504  -0.35283  -0.51726  -0.18188  -0.42217  -0.00844  -0.11031  -0.86818  -1.01930
  6.06516  -0.37609  -0.53611  -0.19175  -0.43178  -0.01070  -0.11085  -0.92582  -1.06571
  6.11529  -0.39451  -0.55589  -0.20180  -0.44190  -0.01190  -0.11144  -0.96984  -1.11432
  6.16541  -0.40569  -0.57622  -0.20817  -0.45233  -0.01172  -0.11203  -0.99716  -1.16431
  6.21554  -0.41208  -0.59688  -0.20859  -0.46279  -0.01033  -0.11255  -1.01731  -1.21530
  6.26566  -0.42020  -0.61794  -0.20331  -0.47298  -0.00821  -0.11296  -1.04908  -1.26789
  6.31579  -0.43740  -0.63987  -0.19516  -0.48276  -0.00602  -0.11326  -1.11104  -1.32358
  6.36591  -0.46788  -0.66332  -0.18880  -0.49222  -0.00432  -0.11348  -1.21053  -1.38426
  6.41604  -0.51024  -0.68890  -0.18943  -0.50172  -0.00344  -0.11365  -1.33784  -1.45132
  6.46617  -0.55797  -0.71686  -0.20089  -0.51179  -0.00344  -0.11382  -1.46959  -1.52498