,composition,lattice_constant,E_formation,E_above_hull
413,Pt2ZrBi,6.816712066,-0.523555874,0.25796703
414,Rh2YIn,6.634132936,-0.741266766,0.007355107
415,Ni2ScPb,6.340111917,-0.306918734,0.087353051
416,Sc2YAs,6.952224328,-0.147555895,0.63033552
417,Ru2YGa,6.439048379,-0.208391918,0.214670933
418,Cu2ZrSn,6.417439415,-0.180663092,0.137956543
419,Ir2TaIn,6.461458709,-0.203947785,0.288500265
420,Au2AgIn,6.646962262,-0.113208107,0.036149673
421,Sc2MoSi,6.554014593,-0.240564114,0.274744449
422,V2ZrSi,6.19851855,-0.147404934,0.413928368
423,Sc2ZrBi,7.134404203,-0.118917209,0.304136104
424,Mn2VAs,5.710120524,-0.224911028,0.055088149
425,Pd2PtSi,6.160357544,-0.236112359,0.349196991
426,Ir2TaSi,6.265880893,-0.188732759,0.563541741
427,Cd2YAs,7.118894328,-0.09197629,0.685915125
428,Fe2NbAl,5.894412022,-0.378261818,0.001326026
429,V2HfSi,6.173714594,-0.120609495,0.422413689
430,Pd2PtAs,6.280105209,-0.103224771,0.205456345
431,Sc2CoZn,6.4320463,-0.335931275,0.043799166
432,Ir2YGa,6.498679021,-0.525461003,0.208779833
433,Ru2YSb,6.571005347,-0.41067514,0.173345813
434,Rh2NbPb,6.501421385,-0.042685725,0.319844318
435,Rh2CuAl,5.963650602,-0.538376815,0.010225048
436,Pd2ZrGe,6.482651965,-0.628210431,0.187470058
437,Pt2NbZn,6.361326016,-0.457724035,0.146625383
438,Pt2NiIn,6.3051172,-0.233533573,0.107250869
439,Pd2ScIn,6.524803065,-0.835080229,0.005617461
440,Pt2NbAs,6.439369947,-0.106107396,0.536436938
441,Cu2YGe,6.443858907,-0.282855305,0.238676663
442,Rh2NbGa,6.251724751,-0.498923139,0.073388541
443,Pt2NbGa,6.399817703,-0.444352561,0.206024078
444,Rh2VIn,6.249527004,-0.244436963,0.167952978
445,Pt2TaAl,6.364059616,-0.639966838,0.210491273
446,Pd2CuAs,6.159067858,-0.218457089,0.062620518
447,V2NiAs,5.900492155,-0.157021966,0.257321057
448,Sc2TaSb,6.858647859,-0.107202801,0.481923705
449,Cu2TiZn,5.92182285,-0.168857261,0.008255041
450,Os2NbAl,6.227023906,-0.43841633,0.000429568
451,Au2ScGa,6.629670517,-0.618033978,0.031752564
452,Ti2MnB,5.772109458,-0.180466605,0.39473114
453,Ti2CrSi,6.07607578,-0.401472258,0.164793153
454,Ir2ZrBi,6.746896058,-0.134769829,0.467612884
455,Ag2ScPb,6.839738485,-0.12540961,0.105222283
456,Pd2CuSn,6.309591504,-0.425322252,0.005634862
457,Au2ZrZn,6.630898888,-0.470095443,0.000399102
458,Cu2TiIn,6.207431256,-0.126629568,0.002955499
459,Ti2AgIn,6.597381882,-0.024966989,0.120905002
460,Os2VGa,6.046764201,-0.212997834,0.000308207
461,Pt2HfSb,6.664137485,-0.622775903,0.307381405
462,Fe2TiSi,5.67171791,-0.71403219,0.000161921
463,Ti2AgAl,6.434030965,-0.104572326,0.168704072
464,Rh2TiSi,6.06581614,-0.81012688,0.097974745
465,Pd2TiTl,6.44877448,-0.337106765,0.144994726
466,Ru2TaB,5.962056855,-0.027567272,0.412243808
467,Rh2CuGe,5.99178134,-0.385372644,0.000221307
468,Rh2TaZn,6.206330682,-0.5481023,0.046404466
469,Pd2ZrBi,6.747932792,-0.472139864,0.148529036
470,Au2ZrBi,7.008167338,-0.180671814,0.250404739
471,Rh2HfPb,6.556273538,-0.481167281,0.169637969
472,Pt2NbTl,6.566704058,-0.086349874,0.436349834
473,V2CrSi,5.837646515,-0.245990026,0.2344525
474,Pd2HfAs,6.448893106,-0.510650933,0.290046726
475,Fe2ScAs,5.881096252,-0.287389578,0.401017035
476,Au2YTl,6.992301741,-0.548925445,0.095726434
477,Ni2TaGe,5.981804133,-0.223591981,0.173016121
478,Os2HfGa,6.312450393,-0.298630068,0.143294364
479,Ni2ScTl,6.309745562,-0.261192703,0.132181342
480,Rh2YGa,6.468629911,-0.792516165,0.004212765
481,Pd2ZrSn,6.59216088,-0.750810757,0.026691588
482,Ni2TiTl,6.150514862,-0.12473459,0.227098578
483,Fe2VB,5.34817826,-0.198086088,0.219169538
484,Ir2NbSi,6.260755454,-0.152326076,0.587489845
485,Ni2TaZn,5.919662447,-0.250953275,0.028939881
486,Cu2PtAl,5.956105589,-0.345678855,0.178470247
487,Ru2TiZn,6.086315287,-0.345747471,0.09732316
488,Ti2MoB,5.994268601,-0.012719884,0.480027216
489,Pt2CuSi,6.045648124,-0.356591276,0.185390325
490,V2ZrGe,6.270679237,-0.065388406,0.433203225
491,Ni2HfTl,6.304218221,-0.196602863,0.20438132
492,Ti2TaGa,6.404658067,-0.226929286,0.106790036
493,Sc2CoIn,6.71453886,-0.275035605,0.129685972
494,Ru2TiTl,6.351101964,-0.046783635,0.347467886
495,Pt2NbAl,6.368257539,-0.617866498,0.226215983
496,Sc2NbSb,6.854209145,-0.236734694,0.352391813
497,Cd2PtGa,6.634293496,-0.077391286,0.286845373
498,Rh2NbAl,6.239518646,-0.636888863,0.116973638
499,Ag2HfZn,6.544838698,-0.02947973,0.080259612
500,Cd2YAl,6.959119543,-0.159402314,0.195959791
501,Ni2AgSb,6.218129385,-0.009787041,0.148320168
502,Au2HfSn,6.805646982,-0.292091443,0.147825598
503,Os2WAl,6.163173998,-0.138443282,0.101659513
504,Ru2TiSi,5.996401546,-0.904148505,3.23267E-05
505,Pt2HfB,6.256006599,-0.061641586,0.926285969
506,Au2HfZn,6.585167179,-0.441421854,0.000606635
507,Ti2WSb,6.485858011,-0.113714241,0.273020718
508,Os2ZrGa,6.349941513,-0.204933046,0.168469299
509,Ti2ZrGe,6.498243312,-0.277887271,0.302749547
510,Pd2PtAl,6.193715449,-0.524072573,0.143239426
511,Pd2YAl,6.568991364,-0.842490959,0.100255245
512,Rh2AgGe,6.210229384,-0.154645608,0.200273615
513,Os2ScGa,6.26005124,-0.086838265,0.303191382
514,Ag2ScSi,6.47583612,-0.123180919,0.295740428
515,Pt2TaGa,6.393554709,-0.461603811,0.209648588
516,Ti2ScIn,6.738429194,-0.017617481,0.218668357
517,Ti2CuGe,6.204498989,-0.342004193,0.178589325
518,Pt2TiGe,6.334497908,-0.55199578,0.254935367
519,Au2YZn,6.831848868,-0.634041034,0.041845558
520,Ti2PtZn,6.313765149,-0.509707182,0.132828889
521,Pt2AgIn,6.472273217,-0.238920384,0.090292384
522,Au2ZrSb,6.867802098,-0.213478021,0.263323292
523,Ir2ZrPb,6.665983374,-0.158077425,0.413229985
524,Pd2PtZn,6.235049492,-0.26721501,0.07308792
525,Cu2PtZn,5.93049423,-0.192288465,0.111640025
526,Ir2VIn,6.301815216,-0.026571103,0.369593928
527,Ru2HfZn,6.267615796,-0.350240441,0.105080003
528,Ni2PtSb,6.112635281,-0.148067146,0.075654844
529,Ir2HfSn,6.546752464,-0.53341428,0.177736856
530,Ir2TiTl,6.420364818,-0.0949237,0.487393308
531,Pd2PtPb,6.483073911,-0.134554295,0.103415052
532,Pd2ZrAl,6.410010376,-0.797131908,0.024551398
533,Ti2CuAs,6.19463636,-0.365079101,0.301678301
534,Au2TaAl,6.498827402,-0.017615988,0.226910296
535,Ru2YSn,6.617379966,-0.346514728,0.077333629
536,Au2HfPb,6.883219041,-0.120126119,0.3005942
537,Pt2ZrSi,6.464717708,-0.663581339,0.381597667
538,V2TaGa,6.185435811,-0.068352234,0.12925604
539,Ti2MnAl,6.128750778,-0.31777973,0.038817885
540,Ti2WSi,6.231995544,-0.360008888,0.203186007
541,Rh2HfIn,6.461334157,-0.777060404,0.022793895
542,Pd2ZrAs,6.480446167,-0.524814479,0.294614675
543,Au2NiZn,6.213315123,-0.102451398,0.040728126
544,Pd2NbGe,6.369339022,-0.204979666,0.289539616
545,Rh2ZrPb,6.587318778,-0.46740385,0.105601858
546,Ir2YSb,6.709691181,-0.318269275,0.40392262
547,Ru2VGe,6.012883428,-0.334648624,0.015530637
548,Rh2YBi,6.781538737,-0.534828653,0.075993093
549,Rh2AgGa,6.218143179,-0.168153096,0.176971133
550,Pt2ScTl,6.608128949,-0.649549805,0.182874891
551,Ru2VAl,5.995066315,-0.62799767,7.18042E-05
552,Ag2ZrGa,6.642858521,-0.107851138,0.206936175
553,Pd2NiPb,6.377918694,-0.05927446,0.155294426
554,Ti2CuSb,6.450604675,-0.180148956,0.245885792
555,Pd2TiSb,6.456025057,-0.49674233,0.116583877
556,Cu2HfGa,6.15795696,-0.253795748,0.040235783
557,Pt2ZrTl,6.665713308,-0.540850436,0.240672468
558,Ni2NbIn,6.167761903,-0.182252733,0.035118039
559,Pt2NiAl,6.054743451,-0.612478123,0.06283826
560,Ag2ScAl,6.504514418,-0.318125515,0.013830598
561,Pt2HfSn,6.623910821,-0.78078701,0.197610596
562,Mn2NbSb,6.133936089,-0.028615021,0.130257516
563,Co2CuSi,5.547966141,-0.257882989,0.090616688
564,Pt2CuZn,6.067862878,-0.36657271,0.003922832
565,Ni2ZrZn,6.073857485,-0.399224127,0.025992832
566,Pd2NiTl,6.338745021,-0.030469614,0.145337857
567,Rh2PtSb,6.332373877,-0.168512946,0.11204113
568,Ni2PtZn,5.86445351,-0.165333383,0.119654413
569,Co2TiZn,5.782655278,-0.373839553,0.000408989
570,Au2YSb,7.021990707,-0.608252775,0.098987487
571,Ni2HfBi,6.403660016,-0.158779723,0.242300287
572,Pd2TiGe,6.273367035,-0.54950767,0.121191345
573,Ag2ScAs,6.640322479,-0.117501189,0.570905424
574,Rh2CuSi,5.893498536,-0.543110396,0.005034047
575,Rh2HfAl,6.290082658,-1.026288206,0.01913516
576,Au2ZrSi,6.655190701,-0.205622546,0.301253165
577,Ti2TaSb,6.557498551,-0.225076673,0.158101014
578,Rh2NbSb,6.436407085,-0.216861676,0.306484524
579,Sc2RuZn,6.527770729,-0.488982695,0.04579301
580,Pt2TiSn,6.476478298,-0.63893728,0.193381416
581,Rh2TiPb,6.416529537,-0.349104818,0.214894823
582,Rh2HfSn,6.48478334,-0.803084905,0.02744561
583,Ir2HfSb,6.591982919,-0.331089273,0.462941954
584,Pd2HfZn,6.381931459,-0.678866089,0.012517063
585,Ni2CuSi,5.596124019,-0.345667499,0.073631311
586,Ag2TiGa,6.447472519,-0.025235738,0.226545594
587,Ru2ScIn,6.436275124,-0.259736164,0.07735422
588,Ni2YGe,6.279645402,-0.419598078,0.2190962
589,Ni2TiBi,6.255972531,-0.098019792,0.274782173
590,Ag2YAl,6.745105917,-0.32784504,0.025308508
591,Ti2NbAs,6.342548972,-0.358380103,0.308377298
592,Au2TiGa,6.477320566,-0.31965388,0.067236197
593,Pd2NiAl,6.006119682,-0.553685148,0.068004971
594,Rh2NbTl,6.451213441,-0.078527031,0.284003011
595,Ir2NbSn,6.494091673,-0.096494632,0.443681408
596,Ni2TiSn,6.082324538,-0.477718085,0.030656122
597,Rh2AgSi,6.109729167,-0.235019726,0.313124718
598,Ru2TiAl,6.088164815,-0.773141886,0
599,Ni2TaSb,6.189520974,-0.000943781,0.299982786
600,Co2ScZn,5.943378459,-0.191860674,0.1018666
601,Pt2NbPb,6.640159187,-0.036610138,0.48608957
602,Pd2RuSn,6.347917146,-0.019116059,0.411841054
603,Sc2RuTl,6.745551344,-0.323786094,0.072555575
604,Ti2ZrSi,6.441051228,-0.302117243,0.309662493
605,Ni2VIn,6.004082407,-0.053122542,0.153113591
606,Pd2AgBi,6.589020619,-0.201841563,0.014387186
607,Au2PtGa,6.465980844,-0.059050756,0.269639649
608,Ni2AgSi,5.845418284,-0.069444476,0.349854334
609,Ni2YSn,6.470604939,-0.50447558,0.064633359
610,Pt2HfAl,6.434884381,-1.024611861,0.074649433
611,Pd2ScTl,6.579400111,-0.626030158,0.041965335
612,Ir2ScZn,6.259792649,-0.592254521,0.047944055
613,Sc2NiPb,6.839801187,-0.319169215,0.168963183
614,Rh2ZrAs,6.372761844,-0.540615544,0.321890262
615,Os2ZrGe,6.337072092,-0.190799081,0.272470676
616,Os2ZrAl,6.327721961,-0.406410985,0.081533252
617,Fe2ZrSn,6.225139,-0.240600199,0.070515551
618,Os2ZrIn,6.514542587,-0.02501577,0.265235989
619,Sc2HfBi,7.123887012,-0.028421682,0.387449907
620,Ni2YGa,6.289732162,-0.421704918,0.143500893
621,Pd2TiPb,6.506678737,-0.347732096,0.134369395
622,Ti2CuB,5.84961402,-0.088364824,0.419264261
623,Ru2ZrGa,6.309273317,-0.531554571,0.000587847
624,Ti2VGe,6.217215421,-0.332236316,0.157814545
625,Ir2YIn,6.669480257,-0.475733206,0.15338277
626,Sc2NiZn,6.483023154,-0.42053982,0.027160767
627,Ru2ScSn,6.418688862,-0.525233913,0.004181246
628,Pd2NiAs,6.115060876,-0.139528581,0.179380596
629,Pd2NiIn,6.254813998,-0.299382873,0.092909213
630,Ti2NbBi,6.656412681,-0.044356938,0.101933849
631,Ru2CoGa,5.930600377,-3.75212E-05,0.153644505
632,Ni2TaAl,5.945740425,-0.465604718,0.012252106
633,Ag2ScGe,6.661806903,-0.187898984,0.237889978
634,Pd2AgGe,6.336411308,-0.225779038,0.181058661
635,Rh2ZrSn,6.521362456,-0.772806692,0.035304524
636,Cu2ScAl,6.158772595,-0.412195301,0.003451988
637,Ni2NbAl,5.960995134,-0.437594918,0.006620756
638,Cu2ScSi,6.041950454,-0.327812078,0.173259899
639,Sc2PtGa,6.668994631,-0.910838599,0.009171735
640,Ti2RuSi,6.170501567,-0.499878641,0.322555971
641,Pd2HfSn,6.55613395,-0.726938353,0.039639824
642,Ti2WAl,6.348049497,-0.281440957,0.001862803
643,Rh2CuPb,6.322012525,-0.029454565,0.019913301
644,Ag2YPb,7.035013687,-0.24659794,0.076552409
645,Cu2YZn,6.388142106,-0.191362361,0.095874298
646,Pt2ZrSb,6.689973866,-0.631631071,0.285332263
647,Ir2HfGe,6.400657485,-0.452391413,0.291953065
648,Ti2MoSi,6.222178633,-0.465636556,0.119814003
649,Au2AgSn,6.724404945,-0.090242086,0.056343739
650,Au2YSi,6.817581379,-0.47327571,0.213311352
651,Ir2ZrGe,6.435048597,-0.389199654,0.346939165
652,Ru2YAl,6.429625027,-0.328494616,0.175000603
653,Sc2RuAl,6.582087948,-0.527315988,0.06062351
654,Ir2YZn,6.492168873,-0.359598346,0.275043621
655,Rh2ScB,5.939760181,-0.360310576,0.4568669
656,Sc2NbGe,6.736628674,-0.170556304,0.392689814
657,Rh2YAl,6.463010415,-0.876256806,0.093628192
658,Ag2ZrZn,6.594780078,-0.087893826,0.054991822
659,Pd2AgIn,6.396048994,-0.368263112,0.023743096
660,Pd2ZrSb,6.644217937,-0.620221521,0.132259129
661,Pt2ScGa,6.410558742,-0.962624478,0.065469155
662,Rh2ZrAl,6.332174365,-0.951583788,0.019357173
663,Ru2HfGa,6.273387363,-0.605060268,0.00792925
664,Ir2ScGa,6.26326484,-0.794717153,7.29046E-05
665,Au2YPb,7.070333132,-0.581743859,0.06290802
666,Cu2YAl,6.400501263,-0.343911599,0.027226134
667,Ru2YAs,6.393711271,-0.282037775,0.49585364
668,Ni2CuGe,5.728902141,-0.205071954,0.03427537
669,Pt2TaIn,6.518288534,-0.39002679,0.232058611
670,Ir2HfAs,6.440665543,-0.301329633,0.493099424
671,Ir2ZrZn,6.3484399,-0.635346875,0.010668025
672,Ni2NbGa,5.97407705,-0.345682949,0.006617241
673,Rh2NbSn,6.429018617,-0.375238059,0.146453064
674,Pd2AgAl,6.187937003,-0.482185844,0.139218397
675,Ti2WSn,6.487470934,-0.209470914,0.101786631
676,Pt2TiAs,6.341690414,-0.422437475,0.38267246
677,Pd2AgZn,6.266441192,-0.307237717,0.027727976
678,Sc2PtZn,6.628802801,-0.838701703,0.000266157
679,Sc2AgZn,6.771632109,-0.321552014,0.012245095
680,Pd2NiSb,6.288046537,-0.244816139,0.105759897
681,Sc2MoSn,6.799250206,-0.251638394,0.230738393
682,Pt2ScGe,6.471668406,-0.796639355,0.188790698
683,Ni2YSi,6.18118821,-0.435472713,0.263023982
684,Au2ZrAs,6.699184574,-0.189525861,0.388892617
685,V2TiAl,6.159595043,-0.032060986,0.186010628
686,Sc2CuIn,6.830351637,-0.328006293,0.054701787
687,Pt2YPb,6.897163295,-0.718357566,0.098759452
688,Ag2ZrAl,6.559287177,-0.152270769,0.090537826
689,Cu2PtSi,5.937798124,-0.044243029,0.291088531
690,Ti2NbGa,6.402638886,-0.291349906,0.042369416
691,Ti2VSi,6.152364746,-0.396046858,0.137874079
692,Ti2RuAs,6.236623337,-0.433972943,0.434113643
693,Ru2ScBi,6.509297936,-0.29311209,0.048555688
694,Ru2NbIn,6.379707864,-0.257168628,0.000377628
695,Rh2ScZn,6.240467174,-0.776223251,0.008232666
696,Pd2NbSn,6.486130585,-0.318627112,0.138321009
697,Sc2PtIn,6.796806459,-0.767266018,0.084595092
698,Rh2ScGa,6.236054239,-0.98154179,0.000237791
699,Rh2ScIn,6.418960698,-0.845548644,0.001693745
700,Pt2YGa,6.653899008,-0.870600625,0.182902771
701,Rh2HfSi,6.250571468,-0.811077605,0.143129791
702,Ti2ZrIn,6.735426813,-0.082681774,0.124682021
703,Ti2TaAs,6.358379002,-0.257872841,0.408884561
704,Ni2HfSn,6.247969901,-0.525404763,0.04189027
705,Pd2NbAl,6.295715572,-0.468554303,0.152849939
706,Au2CuIn,6.540618233,-0.08479655,0.059167643
707,Pt2ScAl,6.372929277,-1.121485339,0.04734554
708,Ru2HfGe,6.255291093,-0.660027965,0.000207644
709,Sc2MoIn,6.806956549,-0.088369688,0.20056111
710,Os2TaSi,6.184766626,-0.147497556,0.276146682
711,Au2HfAs,6.667693286,-0.140302088,0.398860327
712,Pt2YIn,6.776859055,-0.903731014,0.061833461
713,Ru2TiGa,6.094259582,-0.630768172,0
714,Pt2TiIn,6.442554958,-0.661566841,0.118668995
715,Rh2CuAs,6.033043612,-0.218138199,0.14000612
716,Pt2ZrGe,6.556515475,-0.660681104,0.256397869
717,Ni2WAl,5.887696279,-0.158227308,0.238337886
718,Au2TiTl,6.655434531,-0.044430947,0.280221241
719,Ni2ZrSn,6.290871132,-0.533348707,0.041305703
720,Ni2TaSi,5.888923007,-0.350469419,0.2639076
721,Ti2MoIn,6.492228977,-0.169364527,0.011616481
722,Ni2ZrAs,6.148752033,-0.389694094,0.307353657
723,Ni2TaAs,6.023923007,-0.002028391,0.400006387
724,Sc2NbAs,6.642009359,-0.220160931,0.523854846
725,Rh2YSi,6.40246975,-0.701951238,0.323321685
726,Pd2CuAl,6.045115471,-0.623036355,0.014357584
727,Rh2CuGa,5.99262427,-0.379147591,0.000453693
728,Ir2ZrSn,6.582497243,-0.490803484,0.195550936
729,Pt2ScSi,6.352546151,-0.82326538,0.325183906
730,Au2YSn,6.99733504,-0.709137715,0.015237802
731,Os2VZn,6.02888663,-0.035295393,0.098219739
732,Ni2VAl,5.764852842,-0.386873063,0.051530596
733,Cu2ZrTl,6.440289456,-0.016469991,0.093129429
734,Ru2PtAl,6.137870645,-0.15096978,0.37776179
735,Ir2CuSn,6.240460327,-0.043636062,0.094662867
736,Pd2PtTl,6.438360114,-0.106885044,0.068636549
737,Pd2TaIn,6.460200194,-0.292262748,0.141478034
738,Ni2PtSn,6.095763429,-0.256974364,0.058050764
739,Rh2NbGe,6.272587709,-0.315454959,0.259831643
740,Pt2ZrIn,6.625566583,-0.808812888,0.04169692
741,Pd2CuPb,6.434040627,-0.14268512,0.079084236
742,Sc2AgGe,6.773262945,-0.518054116,0.125978825
743,Pd2CuIn,6.295163837,-0.393005947,0.024824548
744,Rh2ScBi,6.581161462,-0.557964643,0.058197599
745,Co2YIn,6.418837728,-0.104341541,0.17603156
746,Ni2HfZn,6.029381809,-0.435295609,0.011169927
747,Rh2YSn,6.647903687,-0.800087618,0.013321751
748,Au2YIn,6.945481251,-0.710291534,0.006598541
749,Rh2TaPb,6.494275038,-0.047426173,0.404942401
750,Ni2ZrBi,6.443133128,-0.194510354,0.195450989
751,Cu2PtIn,6.182276822,-0.161818588,0.098386886
752,Cu2YBi,6.798575249,-0.170470237,0.28709114
753,Ru2ScPb,6.499891122,-0.176504719,0.114234343
754,Rh2CuSb,6.218984474,-0.295133301,0.018516252
755,Ru2YSi,6.342267232,-0.347990613,0.33182358
756,Ir2CuSi,5.929174659,-0.322463534,0.0396796
757,Ni2HfAs,6.087837452,-0.383043665,0.276626598
758,Rh2TaAl,6.23412333,-0.697320015,0.098322271
759,Fe2TaGa,5.903906252,-0.320919054,0.000440484
760,Pt2TiZn,6.248530001,-0.754080473,0.077638577
761,Ti2NbAl,6.449367564,-0.260987734,0.052407388
762,Au2PtZn,6.424163214,-0.115363353,0.169052688
763,Sc2CuTl,6.871974823,-0.242975996,0.040564758
764,Ti2CrSn,6.375534852,-0.150487074,0.168660832
765,Pd2NiSn,6.259959375,-0.361028644,0.073262292
766,Rh2ZrTl,6.538123887,-0.476308859,0.096696849
767,Sc2MoPb,6.853931002,-0.03416052,0.282565112
768,Ag2ZrIn,6.721758917,-0.122535024,0.039446824
769,Ti2WZn,6.300693633,-0.107719457,0.057914061
770,Pd2CuGe,6.120094976,-0.321789046,0.085048653
771,Cu2HfSi,6.086369278,-0.097852543,0.355730261
772,Ag2ZrSn,6.76629224,-0.033555535,0.260535335
773,Os2VAl,6.018763483,-0.465284848,0.000860877
774,Ir2MoAl,6.218060416,-0.1767813,0.458123414
775,Pd2TaGa,6.338462942,-0.359699311,0.147558239
776,Ir2ScIn,6.457022978,-0.633244856,0.006081433
777,Pt2YSb,6.8295113,-0.803630773,0.211801556
778,Rh2ScPb,6.519703526,-0.590956366,0.03395574
779,Au2ScBi,6.966380286,-0.420348955,0.191842396
780,Ir2ZrSb,6.633902686,-0.294416879,0.476583956
781,Pt2TaSb,6.586750278,-0.115606636,0.513313263
782,Fe2VAl,5.667374921,-0.42577744,0.001275911
783,Cu2ZrGa,6.19696348,-0.291229959,0.043178518
784,Ti2NiBi,6.520380998,-0.013784748,0.339972758
785,Rh2NbIn,6.406636995,-0.363407093,0.078419448
786,Pd2ZrZn,6.428457263,-0.644513363,0.01581134
787,Pt2HfSi,6.430734332,-0.697221345,0.344870674
788,Sc2NiAs,6.504205562,-0.672732579,0.27373516
789,Rh2TaGa,6.247027066,-0.550567716,0.110774215
790,Ru2NbGa,6.204343124,-0.489351441,0.000172379
791,Pd2CuTl,6.376781099,-0.133571944,0.063007965
792,Cu2RuAl,5.882926798,-0.024804667,0.306576763
793,Pt2AgZn,6.298671089,-0.185961309,0.119169783
794,Ir2NbZn,6.265177832,-0.341561418,0.10816459
795,Rh2TiIn,6.308365472,-0.664972696,0.028884892
796,Sc2RuPb,6.803380672,-0.335797072,0.131434906
797,Ni2YZn,6.253794815,-0.281076106,0.135732445
798,Au2YGa,6.875386645,-0.660396233,0.03928545
799,Pt2HfTl,6.631929761,-0.543329275,0.293272858
800,Fe2NbGa,5.910886727,-0.263076649,0.000598923
801,Rh2VAl,6.036503393,-0.627183783,0.117315665
802,Au2CuZn,6.249499693,-0.144713243,0.004738865
803,V2NbGa,6.187069827,-0.095390591,0.117413303
804,Cu2PtSn,6.219356778,-0.124503214,0.189950159
805,Ti2HfSi,6.411463828,-0.245250692,0.336590793
806,Pd2YPb,6.841713033,-0.698010011,0.005329713
807,Ag2ScSb,6.824756932,-0.153252486,0.317941706
808,Rh2YB,6.199941033,-0.038782454,0.724749805
809,Ir2YTl,6.720894155,-0.193605897,0.407514808
810,Pt2HfPb,6.710872671,-0.518259934,0.318342199
811,Pd2YGe,6.644840062,-0.740470698,0.147071154
812,Pt2CuSb,6.404469534,-0.163357554,0.134018568
813,Rh2ZrB,6.095533773,-0.155853513,0.70850427
814,V2HfGe,6.24994688,-0.027860963,0.42313231
815,Sc2CoPb,6.799186754,-0.187408878,0.236177806
816,Sc2CuGe,6.588587562,-0.534828814,0.101292379
817,Fe2ScSb,6.130060347,-0.252939993,0.2182542
818,Au2ZrGa,6.685564823,-0.436460326,0.067981356
819,Au2ScZn,6.581056793,-0.614528159,0.005859139
820,Rh2HfGa,6.303513619,-0.89979733,0.036047656
821,Ru2ScGa,6.238254635,-0.434917495,0.041781713
822,Pd2NbZn,6.311657261,-0.29903984,0.145278053
823,Ti2ZrGa,6.546180008,-0.181106246,0.184551795
824,V2TaAl,6.21585605,-0.093633583,0.095277612