,composition,lattice_constant,E_formation,E_above_hull
825,Pd2TiGa,6.252130687,-0.666851855,0
826,Ir2ZrSi,6.354706247,-0.471030221,0.463382656
827,Ti2MoAs,6.260830289,-0.328327433,0.338799423
828,Pd2ScBi,6.699232109,-0.679195432,0.079749438
829,Rh2ZrGe,6.363911469,-0.687050069,0.120941961
830,Ir2CuGa,6.02859682,-0.129625364,0.064902685
831,Pt2NbSn,6.555761688,-0.336965734,0.297421017
832,Pd2HfGe,6.448501946,-0.62611273,0.164114588
833,Pd2NiGa,6.05068544,-0.403571606,0.078239251
834,Au2AgGa,6.563031763,-0.075141128,0.071594625
835,Ag2CuAl,6.242582347,-0.033453191,0.078368006
836,Cu2ScPb,6.49838224,-0.120047784,0.123986816
837,Pt2ZrGa,6.508230993,-0.833384294,0.105839684
838,Pt2NbIn,6.524508656,-0.387346253,0.202191091
839,Sc2AgTl,6.967682317,-0.298706993,0.006762315
840,Ru2NiGa,5.945367012,-0.047217484,0.16851874
841,Ni2HfGe,6.059526008,-0.516786755,0.12564999
842,Pt2NiGa,6.083113739,-0.381624044,0.05958209
843,Ru2TaIn,6.365655874,-0.332773815,0.003305463
844,Cu2HfAl,6.15402341,-0.324073704,0.004360342
845,Os2TiSi,6.033926324,-0.630357095,0.000322012
846,Cd2ScZn,6.665521248,-0.146262119,0.1090025
847,Ti2NbZn,6.385366959,-0.086523772,0.060081975
848,Ti2HfGe,6.481481016,-0.212872857,0.321452497
849,Cu2ScGa,6.156458722,-0.381180823,0.005449512
850,Sc2WAs,6.562152526,-0.109944921,0.634070856
851,Ni2NbGe,5.988686087,-0.232626626,0.190746635
852,V2RuAs,6.034200975,-0.032524996,0.358338487
853,Ir2TiSn,6.39180592,-0.41683333,0.227073356
854,Rh2TaSn,6.422802773,-0.392876447,0.149818444
855,Ni2HfPb,6.344440957,-0.208628506,0.192355676
856,Cd2ScAl,6.742854441,-0.096133209,0.208112904
857,Ru2NbAl,6.19826174,-0.644546092,0.000176265
858,Ti2TaSn,6.574085711,-0.248985614,0.055702755
859,Cu2ZrGe,6.256473293,-0.118400511,0.320584995
860,Cu2NiZn,5.68566419,-0.03986615,0.09117038
861,V2TiSi,6.010293442,-0.26101152,0.246622546
862,Au2ScSb,6.819671986,-0.4614052,0.150786151
863,Ru2HfSi,6.185927152,-0.794310855,0
864,Cd2YGe,7.14438113,-0.084099145,0.380069773
865,Rh2HfSb,6.498151743,-0.652407998,0.162607113
866,Pt2HfGe,6.521701038,-0.687685943,0.249934488
867,Ir2TaZn,6.258809125,-0.43358498,0.080103072
868,Pt2WZn,6.296899457,-0.039069062,0.329780266
869,Sc2CoAl,6.518966301,-0.353705733,0.083286734
870,Rh2HfBi,6.632169242,-0.434461313,0.236946002
871,Rh2ScSn,6.436976707,-0.9049651,0.022193963
872,Pd2PtGe,6.29225217,-0.210862021,0.20380902
873,Sc2CuSi,6.513904751,-0.499603934,0.094168483
874,Ir2TiPb,6.487813062,-0.024121318,0.558195689
875,Ni2ScBi,6.397218844,-0.31958931,0.169860237
876,Os2HfZn,6.300878352,-0.062829936,0.29156436
877,Ru2ScAs,6.178538351,-0.53747368,0.190179624
878,Co2ScGa,5.950711023,-0.44708218,0.00041907
879,Ti2CoSn,6.372463068,-0.158343451,0.278313524
880,Sc2RuIn,6.721269011,-0.448481703,0.038694035
881,Ru2NbZn,6.192251854,-0.251876163,0.004298878
882,Ir2WAl,6.233087074,-0.142222205,0.48167465
883,Ag2HfGa,6.600731477,-0.031834159,0.226764804
884,Cd2YSb,7.319134141,-0.121539215,0.462497503
885,Co2HfZn,5.963470645,-0.332515386,0.002529447
886,Au2PtSn,6.616207489,-0.030451414,0.284001959
887,Cu2TaAl,6.055099859,-0.000969087,0.187629815
888,Fe2VGa,5.697111494,-0.298412736,0.000263031
889,Pd2PtSn,6.38343699,-0.396821064,0.107779754
890,Pd2TaZn,6.298576986,-0.315285958,0.143914921
891,Ru2VIn,6.219101685,-0.114841915,0.064840628
892,Ti2CoGa,6.133617137,-0.339270248,0.13369253
893,Au2CuSn,6.629182075,-0.030909667,0.110282571
894,Cd2YIn,7.158932875,-0.222214664,0.124025297
895,Sc2NiTl,6.800294105,-0.282927066,0.107194344
896,Rh2TaSb,6.442487498,-0.207742074,0.334110836
897,Pt2NiSi,6.019525281,-0.347791304,0.202497701
898,Au2ZrPb,6.915241809,-0.2037425,0.227334052
899,Fe2HfSn,6.182677976,-0.275527828,0.002693498
900,Au2ZrIn,6.767806301,-0.452896585,0.015023972
901,Co2TaSb,6.133907739,-0.001633054,0.297661648
902,Ti2NbSi,6.309913007,-0.418329118,0.115591819
903,Sc2CuAl,6.66039154,-0.344956477,0.0305823
904,Ru2PtSi,6.09163774,-0.076323034,0.354437738
905,Ti2TaAl,6.448117152,-0.210127657,0.071518168
906,Pd2NiBi,6.459490865,-0.059754336,0.15676029
907,Sc2FeZn,6.42220154,-0.196244282,0.104313133
908,Rh2TiAl,6.103550741,-1.002399603,0.016200328
909,Sc2PtSi,6.612830871,-0.869362926,0.173437061
910,Cu2ZrZn,6.14336915,-0.212913938,0.010741174
911,Pd2TiBi,6.583204925,-0.316226732,0.175515451
912,Ni2YAl,6.288704038,-0.458190394,0.126914215
913,Ru2NiAl,5.921229657,-0.184359125,0.197674136
914,Au2CuAl,6.280524386,-0.263587793,0.00038903
915,Cu2TiGe,6.033468518,-0.072755432,0.256636634
916,Au2CuGa,6.326442983,-0.101134104,0.040208063
917,Ti2RuGe,6.239049411,-0.446575363,0.294375627
918,Ir2TaSn,6.488665058,-0.120521232,0.454061284
919,Ni2ScB,5.697542801,-0.060163791,0.539209228
920,Pt2YGe,6.703623198,-0.744557725,0.282758183
921,Sc2PtGe,6.675003016,-0.928910329,0.103923354
922,Ir2HfBi,6.710022869,-0.159683135,0.496928591
923,Pt2TiGa,6.29070941,-0.757662227,0.073201589
924,Pt2CuIn,6.343861222,-0.307413845,0.071124835
925,Cu2PtGe,6.077974856,-0.044164194,0.193381429
926,Rh2CuBi,6.367708439,-0.021307194,0.071250412
927,Rh2VGa,6.060288484,-0.469695126,0.083064733
928,Ni2ScIn,6.250305265,-0.463446336,0.001419083
929,Pd2ZrIn,6.578796354,-0.695784265,0.001847551
930,Ni2HfAl,6.049833112,-0.641952909,0.010269106
931,Pt2AgAl,6.270780961,-0.454973344,0.192416158
932,Pd2NiGe,6.076678848,-0.270257189,0.136866388
933,Cd2YBi,7.418507363,-0.139670385,0.317890993
934,Pd2TaAl,6.289526564,-0.470682223,0.158758185
935,Pt2TaSi,6.353616474,-0.280806724,0.445910623
936,Ag2PtAl,6.323460024,-0.104900659,0.419248443
937,Pt2ScSn,6.58761989,-0.916861518,0.059767278
938,Ir2YAl,6.48703055,-0.692976521,0.208348703
939,Pd2PtSb,6.431172788,-0.266074389,0.103096857
940,Pd2TiB,5.957976732,-0.022149796,0.723332361
941,Ru2CuSi,5.883658698,-0.207528284,0.112011659
942,Rh2YZn,6.467323182,-0.620413649,0.026002199
943,Ir2HfZn,6.305801325,-0.733386951,0
944,Pd2ScAs,6.396016401,-0.748431013,0.170613049
945,Ag2YAs,6.846432511,-0.211547184,0.566344231
946,Pd2AgPb,6.514555154,-0.159353442,0.054929567
947,Ni2PtGa,5.903764714,-0.288351634,0.080999902
948,Sc2CuGa,6.600006122,-0.468365571,0.00082309
949,Ni2ScSn,6.244808916,-0.59188915,0.000885006
950,Rh2ScTl,6.466168996,-0.586408533,0.00431996
951,Au2AgZn,6.485984792,-0.107363842,0.03226587
952,Os2NbZn,6.234404638,-0.02220813,0.088017808
953,Ru2HfIn,6.451434491,-0.423489989,0.036525398
954,Sc2WSi,6.566688597,-0.076391431,0.436498093
955,Pt2HfIn,6.588544561,-0.824302004,0.065591554
956,Ag2ScGa,6.605556997,-0.299874061,0.038069706
957,Fe2TiGe,5.777874483,-0.502684102,0
958,Ti2TaIn,6.588446269,-0.076940597,0.06803142
959,Ru2YBi,6.69889638,-0.170491455,0.287069923
960,Ti2MoAl,6.343496762,-0.351417172,0.024500185
961,Rh2TiZn,6.089024428,-0.791490288,0
962,Os2ScAs,6.223153111,-0.058751908,0.629654705
963,Ti2AgSi,6.317836412,-0.22406702,0.324996588
964,Mn2NiSi,5.569438104,-0.159552941,0.220098628
965,Ni2PtAl,5.867630839,-0.444265258,0.112716991
966,Ru2VB,5.717728735,-0.13475765,0.282497975
967,Pd2TiZn,6.206597209,-0.589078646,0.031782565
968,Ag2PtZn,6.386831648,-0.043096196,0.241319844
969,Ag2ScSn,6.721490363,-0.291286254,0.084512433
970,Cu2YSi,6.311814565,-0.260101958,0.25293879
971,Pt2TiB,6.037041224,-0.035562006,0.824057534
972,Pd2NbGa,6.352050509,-0.367132446,0.139665069
973,Ti2WGa,6.315858259,-0.287033591,0.047839528
974,Pd2AgAs,6.293578743,-0.138882641,0.141671518
975,Rh2YTl,6.67253927,-0.528042165,0.02601405
976,Cu2ScGe,6.168291107,-0.302582423,0.192791423
977,Mn2TaAs,5.92108134,-0.107018996,0.188131503
978,Ti2MnZn,6.085073241,-0.21191528,0.037769675
979,Ir2YSi,6.445200845,-0.381938093,0.596237028
980,Pd2HfSi,6.327885127,-0.643018353,0.246554207
981,Pd2PtGa,6.265103101,-0.371906551,0.118298198
982,Pd2YAs,6.617790995,-0.750227203,0.216667639
983,Sc2CuZn,6.556183582,-0.312537095,0.016520145
984,Ni2MoGa,5.898350587,-0.071971246,0.195036776
985,Cd2YGa,7.025274619,-0.175751685,0.231749443
986,Au2YGe,6.915018746,-0.569536948,0.102474851
987,Rh2WAl,6.177752383,-0.268086465,0.373719151
988,Ni2ZrPb,6.371215131,-0.233189018,0.148329146
989,Ni2CuSn,5.938474972,-0.169487599,0.035789788
990,Rh2ZrSb,6.527661211,-0.638333404,0.175997965
991,Ag2YSb,7.019669846,-0.279269066,0.304751886
992,Sc2MoAl,6.687389959,-0.11441268,0.149549071
993,Ir2HfPb,6.633084565,-0.186162024,0.439220209
994,Ru2HfAl,6.266756953,-0.746582666,0.006622082
995,Ni2TaSn,6.170522578,-0.209401479,0.087971455
996,Rh2YSb,6.648688003,-0.7125986,0.087393089
997,Ag2YIn,6.902851164,-0.373196128,0.014723918
998,Ni2ScAs,6.038577359,-0.528341743,0.243217917
999,Os2ScAl,6.239080239,-0.289964779,0.18311992