ESCALE ; pCOHP file generated by LOBSTER. Energy is shifted such that the Fermi level lies at 0 eV.
         4          1        401  -8.40578e+00   1.16443e+01   1.61928e+00 
Average
No.1:Ru44->N65(2.1384787971206856)
No.2:Hf10->N65(2.2208536909014858)
No.3:N65->N66(1.28638534153522)
-10.02506   0.00000  -4.81831   0.00000  -1.06512   0.00000  -1.78786   0.00000 -11.60193
 -9.97494   0.00000  -4.81831   0.00000  -1.06512   0.00000  -1.78786   0.00000 -11.60193
 -9.92481   0.00000  -4.81831   0.00000  -1.06512   0.00000  -1.78786   0.00000 -11.60193
 -9.87469   0.00000  -4.81831   0.00000  -1.06512   0.00000  -1.78786   0.00000 -11.60193
 -9.82456   0.00000  -4.81831   0.00000  -1.06512   0.00000  -1.78786   0.00000 -11.60193
 -9.77444   0.00000  -4.81831   0.00000  -1.06512   0.00000  -1.78786   0.00000 -11.60193
 -9.72431   0.00000  -4.81831   0.00000  -1.06512   0.00000  -1.78786   0.00000 -11.60193
 -9.67419   0.00000  -4.81831   0.00000  -1.06512   0.00000  -1.78786   0.00000 -11.60193
 -9.62406   0.00000  -4.81831   0.00000  -1.06512   0.00000  -1.78786   0.00000 -11.60193
 -9.57393   0.00000  -4.81831   0.00000  -1.06512   0.00000  -1.78786   0.00000 -11.60193
 -9.52381  -0.00000  -4.81831  -0.00000  -1.06512  -0.00000  -1.78786  -0.00000 -11.60193
 -9.47368  -0.00000  -4.81831  -0.00000  -1.06512  -0.00000  -1.78786  -0.00000 -11.60193
 -9.42356  -0.00000  -4.81831  -0.00000  -1.06512  -0.00000  -1.78786  -0.00000 -11.60193
 -9.37343  -0.00000  -4.81831  -0.00000  -1.06512  -0.00000  -1.78786  -0.00000 -11.60193
 -9.32331  -0.00000  -4.81831  -0.00000  -1.06512  -0.00000  -1.78786  -0.00000 -11.60193
 -9.27318  -0.00000  -4.81831  -0.00000  -1.06512  -0.00000  -1.78786  -0.00000 -11.60193
 -9.22306  -0.00000  -4.81831  -0.00000  -1.06512  -0.00000  -1.78786  -0.00000 -11.60193
 -9.17293  -0.00000  -4.81831  -0.00000  -1.06512  -0.00000  -1.78786  -0.00000 -11.60193
 -9.12281  -0.00000  -4.81831  -0.00000  -1.06512  -0.00000  -1.78786  -0.00000 -11.60193
 -9.07268  -0.00000  -4.81831  -0.00000  -1.06512  -0.00000  -1.78786  -0.00000 -11.60193
 -9.02256  -0.00000  -4.81831  -0.00000  -1.06512  -0.00000  -1.78786  -0.00000 -11.60193
 -8.97243  -0.00001  -4.81831  -0.00000  -1.06512  -0.00001  -1.78786  -0.00001 -11.60193
 -8.92231  -0.00003  -4.81831  -0.00001  -1.06513  -0.00002  -1.78787  -0.00006 -11.60194
 -8.87218  -0.00012  -4.81832  -0.00003  -1.06513  -0.00010  -1.78787  -0.00023 -11.60195
 -8.82206  -0.00042  -4.81834  -0.00012  -1.06513  -0.00033  -1.78789  -0.00081 -11.60199
 -8.77193  -0.00130  -4.81840  -0.00036  -1.06515  -0.00103  -1.78794  -0.00252 -11.60212
 -8.72180  -0.00362  -4.81858  -0.00101  -1.06520  -0.00285  -1.78808  -0.00700 -11.60247
 -8.67168  -0.00903  -4.81904  -0.00252  -1.06533  -0.00709  -1.78844  -0.01748 -11.60334
 -8.62155  -0.02027  -4.82005  -0.00567  -1.06561  -0.01583  -1.78923  -0.03930 -11.60531
 -8.57143  -0.04113  -4.82211  -0.01154  -1.06619  -0.03192  -1.79083  -0.07994 -11.60932
 -8.52130  -0.07584  -4.82591  -0.02135  -1.06726  -0.05839  -1.79376  -0.14777 -11.61673
 -8.47118  -0.12773  -4.83232  -0.03611  -1.06907  -0.09738  -1.79864  -0.24970 -11.62924
 -8.42105  -0.19787  -4.84224  -0.05622  -1.07189  -0.14899  -1.80611  -0.38842 -11.64871
 -8.37093  -0.28450  -4.85650  -0.08134  -1.07597  -0.21079  -1.81667  -0.56136 -11.67685
 -8.32080  -0.38420  -4.87575  -0.11073  -1.08152  -0.27881  -1.83065  -0.76306 -11.71510
 -8.27068  -0.49473  -4.90055  -0.14394  -1.08873  -0.34981  -1.84818  -0.99043 -11.76475
 -8.22055  -0.61746  -4.93150  -0.18153  -1.09783  -0.42356  -1.86941  -1.24729 -11.82727
 -8.17043  -0.75687  -4.96944  -0.22475  -1.10910  -0.50298  -1.89462  -1.54287 -11.90460
 -8.12030  -0.91591  -5.01535  -0.27424  -1.12284  -0.59120  -1.92426  -1.88229 -11.99895
 -8.07018  -1.08976  -5.06998  -0.32824  -1.13930  -0.68678  -1.95868  -2.25427 -12.11195
 -8.02005  -1.26299  -5.13328  -0.38213  -1.15845  -0.78050  -1.99781  -2.62635 -12.24360
 -7.96992  -1.41439  -5.20418  -0.43018  -1.18001  -0.85685  -2.04076  -2.95614 -12.39177
 -7.91980  -1.52906  -5.28083  -0.46963  -1.20355  -0.90027  -2.08588  -3.21729 -12.55304
 -7.86967  -1.61206  -5.36163  -0.50490  -1.22886  -0.90310  -2.13115  -3.42819 -12.72488
 -7.81955  -1.69499  -5.44659  -0.54941  -1.25640  -0.87022  -2.17477  -3.66536 -12.90861
 -7.76942  -1.82814  -5.53823  -0.62220  -1.28759  -0.81760  -2.21575  -4.04461 -13.11134
 -7.71930  -2.05598  -5.64129  -0.73844  -1.32460  -0.76484  -2.25409  -4.66466 -13.34516
 -7.66917  -2.38410  -5.76079  -0.89672  -1.36955  -0.72546  -2.29046  -5.53012 -13.62236
 -7.61905  -2.75573  -5.89892  -1.07034  -1.42320  -0.70011  -2.32555  -6.49675 -13.94801
 -7.56892  -3.05892  -6.05225  -1.21093  -1.48390  -0.67676  -2.35947  -7.28907 -14.31338
 -7.51880  -3.17036  -6.21117  -1.26706  -1.54741  -0.63795  -2.39145  -7.60607 -14.69464
 -7.46867  -3.01598  -6.36234  -1.20913  -1.60802  -0.57143  -2.42009  -7.26737 -15.05891
 -7.41855  -2.61077  -6.49321  -1.04510  -1.66041  -0.47744  -2.44402  -6.30977 -15.37519
 -7.36842  -2.05168  -6.59605  -0.81661  -1.70134  -0.36855  -2.46250  -4.96988 -15.62431
 -7.31830  -1.46966  -6.66972  -0.57841  -1.73033  -0.26278  -2.47567  -3.56779 -15.80315
 -7.26817  -0.97407  -6.71854  -0.37539  -1.74915  -0.17505  -2.48444  -2.37176 -15.92203
 -7.21805  -0.62098  -6.74967  -0.22988  -1.76067  -0.11245  -2.49008  -1.52060 -15.99825
 -7.16792  -0.41419  -6.77043  -0.14270  -1.76783  -0.07476  -2.49383  -1.02510 -16.04964
 -7.11779  -0.32567  -6.78675  -0.10196  -1.77294  -0.05832  -2.49675  -0.81672 -16.09058
 -7.06767  -0.31742  -6.80266  -0.09217  -1.77756  -0.06003  -2.49976  -0.80006 -16.13068
 -7.01754  -0.35514  -6.82047  -0.09980  -1.78256  -0.07948  -2.50374  -0.88614 -16.17510
 -6.96742  -0.41395  -6.84122  -0.11532  -1.78834  -0.11946  -2.50973  -1.00706 -16.22558
 -6.91729  -0.47999  -6.86527  -0.13363  -1.79504  -0.18542  -2.51903  -1.12091 -16.28176
 -6.86717  -0.54984  -6.89284  -0.15368  -1.80274  -0.28402  -2.53326  -1.21182 -16.34250
 -6.81704  -0.62732  -6.92428  -0.17749  -1.81164  -0.41936  -2.55428  -1.28510 -16.40692
 -6.76692  -0.71709  -6.96022  -0.20823  -1.82208  -0.58654  -2.58368  -1.35649 -16.47491
 -6.71679  -0.81700  -7.00118  -0.24752  -1.83448  -0.76540  -2.62205  -1.43808 -16.54700
 -6.66667  -0.91317  -7.04695  -0.29299  -1.84917  -0.92043  -2.66819  -1.52611 -16.62350
 -6.61654  -0.98197  -7.09617  -0.33743  -1.86608  -1.01109  -2.71887  -1.59738 -16.70356
 -6.56642  -0.99913  -7.14625  -0.37059  -1.88466  -1.00941  -2.76946  -1.61738 -16.78464
 -6.51629  -0.95131  -7.19394  -0.38283  -1.90385  -0.91440  -2.81530  -1.55670 -16.86267
 -6.46617  -0.84283  -7.23618  -0.36872  -1.92233  -0.75340  -2.85306  -1.40636 -16.93316
 -6.41604  -0.69378  -7.27096  -0.32887  -1.93881  -0.56924  -2.88160  -1.18324 -16.99247
 -6.36591  -0.53155  -7.29760  -0.26931  -1.95231  -0.40201  -2.90175  -0.92333 -17.03875
 -6.31579  -0.38116  -7.31671  -0.19923  -1.96230  -0.27627  -2.91559  -0.66798 -17.07224
 -6.26566  -0.25909  -7.32970  -0.12830  -1.96873  -0.19836  -2.92554  -0.45060 -17.09482
 -6.21554  -0.17149  -7.33829  -0.06438  -1.97196  -0.16109  -2.93361  -0.28900 -17.10931
 -6.16541  -0.11582  -7.34410  -0.01230  -1.97257  -0.15053  -2.94116  -0.18464 -17.11856
 -6.11529  -0.08410  -7.34831   0.02614  -1.97126  -0.15168  -2.94876  -0.12677 -17.12492
 -6.06516  -0.06665  -7.35166   0.05148  -1.96868  -0.15230  -2.95640  -0.09912 -17.12989
 -6.01504  -0.05526  -7.35443   0.06559  -1.96540  -0.14530  -2.96368  -0.08608 -17.13420
 -5.96491  -0.04503  -7.35668   0.07081  -1.96185  -0.12910  -2.97015  -0.07679 -17.13805
 -5.91479  -0.03443  -7.35841   0.06937  -1.95837  -0.10632  -2.97548  -0.06634 -17.14138
 -5.86466  -0.02416  -7.35962   0.06315  -1.95520  -0.08126  -2.97955  -0.05437 -17.14410
 -5.81454  -0.01552  -7.36040   0.05377  -1.95251  -0.05774  -2.98245  -0.04260 -17.14624
 -5.76441  -0.00930  -7.36086   0.04281  -1.95036  -0.03808  -2.98436  -0.03263 -17.14787
 -5.71429  -0.00542  -7.36114   0.03181  -1.94877  -0.02315  -2.98552  -0.02493 -17.14912
 -5.66416  -0.00327  -7.36130   0.02204  -1.94766  -0.01279  -2.98616  -0.01905 -17.15008
 -5.61404  -0.00210  -7.36140   0.01428  -1.94695  -0.00628  -2.98647  -0.01431 -17.15079
 -5.56391  -0.00140  -7.36147   0.00870  -1.94651  -0.00264  -2.98660  -0.01027 -17.15131
 -5.51378  -0.00091  -7.36152   0.00502  -1.94626  -0.00087  -2.98665  -0.00689 -17.15165
 -5.46366  -0.00055  -7.36155   0.00276  -1.94612  -0.00017  -2.98666  -0.00424 -17.15187
 -5.41353  -0.00030  -7.36156   0.00144  -1.94605   0.00004  -2.98665  -0.00238 -17.15199
 -5.36341  -0.00014  -7.36157   0.00071  -1.94601   0.00006  -2.98665  -0.00121 -17.15205
 -5.31328  -0.00006  -7.36157   0.00033  -1.94600   0.00004  -2.98665  -0.00056 -17.15207
 -5.26316  -0.00002  -7.36157   0.00014  -1.94599   0.00002  -2.98665  -0.00023 -17.15209
 -5.21303  -0.00001  -7.36158   0.00006  -1.94599   0.00001  -2.98665  -0.00009 -17.15209
 -5.16291  -0.00000  -7.36158   0.00002  -1.94599  -0.00000  -2.98665  -0.00003 -17.15209
 -5.11278  -0.00001  -7.36158   0.00002  -1.94599  -0.00001  -2.98665  -0.00002 -17.15209
 -5.06266  -0.00001  -7.36158   0.00003  -1.94598  -0.00003  -2.98665  -0.00004 -17.15209
 -5.01253  -0.00003  -7.36158   0.00007  -1.94598  -0.00006  -2.98665  -0.00011 -17.15210
 -4.96241  -0.00007  -7.36158   0.00018  -1.94597  -0.00011  -2.98666  -0.00027 -17.15211
 -4.91228  -0.00011  -7.36159   0.00041  -1.94595  -0.00016  -2.98667  -0.00058 -17.15214
 -4.86216  -0.00014  -7.36159   0.00084  -1.94591  -0.00013  -2.98667  -0.00111 -17.15220
 -4.81203  -0.00005  -7.36160   0.00155  -1.94583   0.00016  -2.98666  -0.00187 -17.15229
 -4.76190   0.00032  -7.36158   0.00259  -1.94570   0.00106  -2.98661  -0.00268 -17.15243
 -4.71178   0.00128  -7.36152   0.00392  -1.94550   0.00310  -2.98646  -0.00318 -17.15259
 -4.66165   0.00316  -7.36136   0.00537  -1.94524   0.00688  -2.98611  -0.00276 -17.15272
 -4.61153   0.00627  -7.36104   0.00667  -1.94490   0.01292  -2.98546  -0.00076 -17.15276
 -4.56140   0.01068  -7.36051   0.00752  -1.94452   0.02129  -2.98440   0.00322 -17.15260
 -4.51128   0.01605  -7.35970   0.00776  -1.94414   0.03130  -2.98283   0.00909 -17.15215
 -4.46115   0.02171  -7.35861   0.00749  -1.94376   0.04145  -2.98075   0.01619 -17.15133
 -4.41103   0.02682  -7.35727   0.00707  -1.94341   0.04982  -2.97825   0.02359 -17.15015
 -4.36090   0.03079  -7.35573   0.00697  -1.94306   0.05488  -2.97550   0.03051 -17.14862
 -4.31078   0.03352  -7.35405   0.00758  -1.94268   0.05622  -2.97268   0.03678 -17.14678
 -4.26065   0.03549  -7.35227   0.00892  -1.94223   0.05474  -2.96994   0.04282 -17.14463
 -4.21053   0.03735  -7.35040   0.01062  -1.94170   0.05208  -2.96733   0.04936 -17.14216
 -4.16040   0.03946  -7.34842   0.01198  -1.94110   0.04956  -2.96485   0.05684 -17.13931
 -4.11028   0.04158  -7.34633   0.01234  -1.94048   0.04726  -2.96248   0.06515 -17.13604
 -4.06015   0.04296  -7.34418   0.01121  -1.93992   0.04379  -2.96028   0.07388 -17.13234
 -4.01003   0.04277  -7.34204   0.00828  -1.93950   0.03681  -2.95844   0.08323 -17.12817
 -3.95990   0.04072  -7.33999   0.00295  -1.93935   0.02407  -2.95723   0.09514 -17.12340
 -3.90977   0.03741  -7.33812  -0.00628  -1.93967   0.00438  -2.95701   0.11413 -17.11768
 -3.85965   0.03432  -7.33640  -0.02238  -1.94079  -0.02210  -2.95812   0.14744 -17.11029
 -3.80952   0.03336  -7.33473  -0.05014  -1.94330  -0.05440  -2.96085   0.20464 -17.10003
 -3.75940   0.03644  -7.33290  -0.09572  -1.94810  -0.09180  -2.96545   0.29684 -17.08515
 -3.70927   0.04503  -7.33064  -0.16515  -1.95638  -0.13454  -2.97219   0.43479 -17.06336
 -3.65915   0.05995  -7.32764  -0.26165  -1.96949  -0.18344  -2.98139   0.62493 -17.03203
 -3.60902   0.08098  -7.32358  -0.38223  -1.98865  -0.23815  -2.99332   0.86333 -16.98876
 -3.55890   0.10668  -7.31823  -0.51554  -2.01450  -0.29510  -3.00812   1.13068 -16.93208
 -3.50877   0.13427  -7.31150  -0.64283  -2.04672  -0.34692  -3.02551   1.39256 -16.86228
 -3.45865   0.16023  -7.30347  -0.74278  -2.08395  -0.38444  -3.04478   1.60791 -16.78168
 -3.40852   0.18127  -7.29438  -0.79861  -2.12398  -0.40053  -3.06485   1.74293 -16.69432
 -3.35840   0.19526  -7.28460  -0.80363  -2.16426  -0.39354  -3.08458   1.78295 -16.60495
 -3.30827   0.20173  -7.27448  -0.76248  -2.20248  -0.36800  -3.10302   1.73568 -16.51795
 -3.25815   0.20164  -7.26438  -0.68771  -2.23695  -0.33244  -3.11969   1.62506 -16.43649
 -3.20802   0.19688  -7.25451  -0.59460  -2.26676  -0.29575  -3.13451   1.48100 -16.36225
 -3.15789   0.18975  -7.24500  -0.49703  -2.29167  -0.26439  -3.14776   1.33066 -16.29555
 -3.10777   0.18230  -7.23586  -0.40526  -2.31199  -0.24116  -3.15985   1.19331 -16.23574
 -3.05764   0.17576  -7.22705  -0.32504  -2.32828  -0.22530  -3.17115   1.07761 -16.18172
 -3.00752   0.17019  -7.21852  -0.25760  -2.34119  -0.21307  -3.18183   0.98123 -16.13254
 -2.95739   0.16481  -7.21026  -0.20071  -2.35125  -0.19890  -3.19180   0.89403 -16.08772
 -2.90727   0.15883  -7.20230  -0.15083  -2.35881  -0.17720  -3.20068   0.80452 -16.04740
 -2.85714   0.15227  -7.19466  -0.10534  -2.36409  -0.14440  -3.20792   0.70656 -16.01198
 -2.80702   0.14606  -7.18734  -0.06361  -2.36728  -0.10069  -3.21296   0.60247 -15.98178
 -2.75689   0.14146  -7.18025  -0.02666  -2.36862  -0.05050  -3.21550   0.50154 -15.95664
 -2.70677   0.13942  -7.17326   0.00417  -2.36841  -0.00148  -3.21557   0.41557 -15.93581
 -2.65664   0.14024  -7.16623   0.02807  -2.36700   0.03814  -3.21366   0.35450 -15.91804
 -2.60652   0.14380  -7.15903   0.04505  -2.36474   0.06247  -3.21053   0.32387 -15.90181
 -2.55639   0.15001  -7.15151   0.05540  -2.36197   0.06995  -3.20702   0.32466 -15.88553
 -2.50627   0.15890  -7.14354   0.05926  -2.35900   0.06303  -3.20386   0.35440 -15.86777
 -2.45614   0.17032  -7.13500   0.05656  -2.35616   0.04598  -3.20156   0.40842 -15.84730
 -2.40602   0.18347  -7.12581   0.04773  -2.35377   0.02267  -3.20042   0.48002 -15.82324
 -2.35589   0.19676  -7.11595   0.03468  -2.35203  -0.00437  -3.20064   0.55997 -15.79517
 -2.30576   0.20814  -7.10551   0.02107  -2.35097  -0.03334  -3.20231   0.63667 -15.76325
 -2.25564   0.21586  -7.09469   0.01138  -2.35040  -0.06227  -3.20543   0.69845 -15.72824
 -2.20551   0.21912  -7.08371   0.00886  -2.34996  -0.08896  -3.20989   0.73745 -15.69128
 -2.15539   0.21824  -7.07277   0.01377  -2.34927  -0.11152  -3.21548   0.75245 -15.65356
 -2.10526   0.21422  -7.06203   0.02344  -2.34809  -0.12874  -3.22193   0.74797 -15.61607
 -2.05514   0.20807  -7.05160   0.03404  -2.34639  -0.13971  -3.22894   0.72989 -15.57948
 -2.00501   0.20027  -7.04156   0.04304  -2.34423  -0.14327  -3.23612   0.70103 -15.54435
 -1.95489   0.19094  -7.03199   0.05039  -2.34170  -0.13797  -3.24303   0.66038 -15.51124
 -1.90476   0.18034  -7.02295   0.05780  -2.33881  -0.12302  -3.24920   0.60624 -15.48086
 -1.85464   0.16924  -7.01447   0.06689  -2.33545  -0.09947  -3.25419   0.54031 -15.45377
 -1.80451   0.15873  -7.00651   0.07786  -2.33155  -0.07069  -3.25773   0.46902 -15.43026
 -1.75439   0.14961  -6.99901   0.08942  -2.32707  -0.04163  -3.25982   0.40104 -15.41016
 -1.70426   0.14197  -6.99190   0.09995  -2.32206  -0.01709  -3.26067   0.34306 -15.39296
 -1.65414   0.13525  -6.98512   0.10868  -2.31661  -0.00001  -3.26067   0.29707 -15.37807
 -1.60401   0.12875  -6.97867   0.11619  -2.31079   0.00928  -3.26021   0.26079 -15.36500
 -1.55388   0.12228  -6.97254   0.12399  -2.30457   0.01247  -3.25958   0.23038 -15.35345
 -1.50376   0.11634  -6.96670   0.13376  -2.29787   0.01205  -3.25898   0.20320 -15.34327
 -1.45363   0.11185  -6.96110   0.14659  -2.29052   0.01009  -3.25847   0.17886 -15.33430
 -1.40351   0.10965  -6.95560   0.16271  -2.28236   0.00779  -3.25808   0.15845 -15.32636
 -1.35338   0.10999  -6.95009   0.18132  -2.27328   0.00563  -3.25780   0.14303 -15.31919
 -1.30326   0.11245  -6.94445   0.20061  -2.26322   0.00394  -3.25760   0.13280 -15.31253
 -1.25313   0.11615  -6.93863   0.21795  -2.25230   0.00311  -3.25745   0.12737 -15.30615
 -1.20301   0.12016  -6.93261   0.23037  -2.24075   0.00364  -3.25726   0.12647 -15.29981
 -1.15288   0.12388  -6.92640   0.23552  -2.22894   0.00582  -3.25697   0.13030 -15.29328
 -1.10276   0.12704  -6.92003   0.23270  -2.21728   0.00944  -3.25650   0.13897 -15.28631
 -1.05263   0.12960  -6.91353   0.22337  -2.20608   0.01374  -3.25581   0.15168 -15.27871
 -1.00251   0.13150  -6.90694   0.21070  -2.19552   0.01755  -3.25493   0.16626 -15.27038
 -0.95238   0.13254  -6.90030   0.19849  -2.18557   0.01968  -3.25394   0.17944 -15.26138
 -0.90226   0.13228  -6.89367   0.18991  -2.17605   0.01918  -3.25298   0.18773 -15.25197
 -0.85213   0.13027  -6.88714   0.18680  -2.16669   0.01567  -3.25220   0.18834 -15.24253
 -0.80201   0.12635  -6.88081   0.18967  -2.15718   0.00926  -3.25173   0.18011 -15.23350
 -0.75188   0.12088  -6.87475   0.19835  -2.14724   0.00051  -3.25171   0.16378 -15.22529
 -0.70175   0.11476  -6.86899   0.21263  -2.13658  -0.00990  -3.25220   0.14156 -15.21820
 -0.65163   0.10910  -6.86353   0.23254  -2.12492  -0.02138  -3.25328   0.11613 -15.21238
 -0.60150   0.10464  -6.85828   0.25807  -2.11199  -0.03368  -3.25496   0.08952 -15.20789
 -0.55138   0.10144  -6.85320   0.28857  -2.09752  -0.04692  -3.25732   0.06267 -15.20475
 -0.50125   0.09892  -6.84824   0.32247  -2.08136  -0.06146  -3.26040   0.03575 -15.20295
 -0.45113   0.09627  -6.84341   0.35757  -2.06344  -0.07768  -3.26429   0.00891 -15.20251
 -0.40100   0.09301  -6.83875   0.39168  -2.04380  -0.09557  -3.26908  -0.01709 -15.20336
 -0.35088   0.08926  -6.83428   0.42293  -2.02260  -0.11443  -3.27482  -0.04072 -15.20541
 -0.30075   0.08568  -6.82998   0.44956  -2.00007  -0.13256  -3.28146  -0.05997 -15.20841
 -0.25063   0.08307  -6.82582   0.46928  -1.97655  -0.14736  -3.28885  -0.07271 -15.21206
 -0.20050   0.08220  -6.82170   0.47944  -1.95251  -0.15587  -3.29666  -0.07698 -15.21591
 -0.15038   0.08366  -6.81750   0.47797  -1.92856  -0.15562  -3.30446  -0.07135 -15.21949
 -0.10025   0.08800  -6.81309   0.46481  -1.90526  -0.14535  -3.31175  -0.05545 -15.22227
 -0.05013   0.09562  -6.80830   0.44255  -1.88307  -0.12534  -3.31803  -0.03034 -15.22379
  0.00000   0.10659  -6.80296   0.41571  -1.86224  -0.09735  -3.32291   0.00140 -15.22372
  0.05013   0.12030  -6.79693   0.38895  -1.84274  -0.06428  -3.32613   0.03622 -15.22191
  0.10025   0.13529  -6.79014   0.36519  -1.82444  -0.02983  -3.32763   0.07051 -15.21837
  0.15038   0.14940  -6.78266   0.34448  -1.80717   0.00209  -3.32752   0.10165 -15.21328
  0.20050   0.16038  -6.77462   0.32425  -1.79092   0.02806  -3.32612   0.12882 -15.20682
  0.25063   0.16675  -6.76626   0.30118  -1.77582   0.04592  -3.32381   0.15315 -15.19914
  0.30075   0.16856  -6.75781   0.27377  -1.76210   0.05504  -3.32106   0.17686 -15.19028
  0.35088   0.16731  -6.74942   0.24408  -1.74986   0.05616  -3.31824   0.20170 -15.18017
  0.40100   0.16520  -6.74114   0.21751  -1.73896   0.05075  -3.31570   0.22735 -15.16877
  0.45113   0.16403  -6.73292   0.20075  -1.72890   0.04042  -3.31367   0.25092 -15.15619
  0.50125   0.16464  -6.72467   0.19912  -1.71892   0.02657  -3.31234   0.26822 -15.14275
  0.55138   0.16699  -6.71630   0.21462  -1.70816   0.01036  -3.31182   0.27599 -15.12891
  0.60150   0.17052  -6.70775   0.24496  -1.69588  -0.00716  -3.31218   0.27376 -15.11519
  0.65163   0.17428  -6.69901   0.28353  -1.68167  -0.02459  -3.31341   0.26390 -15.10196
  0.70175   0.17684  -6.69015   0.32043  -1.66561  -0.03996  -3.31541   0.25006 -15.08943
  0.75188   0.17648  -6.68130   0.34505  -1.64831  -0.05093  -3.31797   0.23533 -15.07763
  0.80201   0.17184  -6.67269   0.34980  -1.63078  -0.05567  -3.32076   0.22138 -15.06654
  0.85213   0.16288  -6.66453   0.33335  -1.61407  -0.05390  -3.32346   0.20918 -15.05605
  0.90226   0.15158  -6.65693   0.30145  -1.59896  -0.04743  -3.32584   0.20072 -15.04599
  0.95238   0.14202  -6.64981   0.26487  -1.58568  -0.03983  -3.32783   0.20102 -15.03591
  1.00251   0.13988  -6.64280   0.23553  -1.57387  -0.03536  -3.32961   0.21949 -15.02491
  1.05263   0.15152  -6.63520   0.22301  -1.56270  -0.03793  -3.33151   0.26948 -15.01141
  1.10276   0.18235  -6.62606   0.23268  -1.55103  -0.05069  -3.33405   0.36508 -14.99311
  1.15288   0.23486  -6.61429   0.26530  -1.53773  -0.07603  -3.33786   0.51532 -14.96727
  1.20301   0.30662  -6.59892   0.31762  -1.52181  -0.11548  -3.34365   0.71773 -14.93130
  1.25313   0.38962  -6.57939   0.38311  -1.50261  -0.16904  -3.35212   0.95479 -14.88344
  1.30326   0.47167  -6.55575   0.45294  -1.47991  -0.23375  -3.36384   1.19582 -14.82350
  1.35338   0.53953  -6.52870   0.51689  -1.45400  -0.30256  -3.37900   1.40426 -14.75311
  1.40351   0.58235  -6.49951   0.56464  -1.42569  -0.36446  -3.39727   1.54689 -14.67557
  1.45363   0.59414  -6.46973   0.58761  -1.39624  -0.40668  -3.41766   1.60150 -14.59530
  1.50376   0.57475  -6.44092   0.58136  -1.36710  -0.41885  -3.43865   1.56174 -14.51701
  1.55388   0.52983  -6.41436   0.54779  -1.33964  -0.39741  -3.45857   1.43911 -14.44488
  1.60401   0.46979  -6.39082   0.49555  -1.31480  -0.34790  -3.47601   1.26171 -14.38163
  1.65414   0.40747  -6.37039   0.43758  -1.29287  -0.28324  -3.49021   1.06806 -14.32810
  1.70426   0.35489  -6.35260   0.38659  -1.27349  -0.21852  -3.50116   0.89661 -14.28315
  1.75439   0.32011  -6.33656   0.35070  -1.25591  -0.16525  -3.50944   0.77486 -14.24431
  1.80451   0.30560  -6.32124   0.33177  -1.23928  -0.12803  -3.51586   0.71307 -14.20857
  1.85464   0.30857  -6.30577   0.32621  -1.22293  -0.10494  -3.52112   0.70446 -14.17326
  1.90476   0.32244  -6.28961   0.32736  -1.20652  -0.09018  -3.52564   0.73013 -14.13666
  1.95489   0.33899  -6.27262   0.32805  -1.19008  -0.07721  -3.52951   0.76614 -14.09826
  2.00501   0.35091  -6.25503   0.32280  -1.17390  -0.06103  -3.53257   0.79095 -14.05861
  2.05514   0.35412  -6.23728   0.30964  -1.15838  -0.03928  -3.53454   0.79201 -14.01891
  2.10526   0.34931  -6.21977   0.29063  -1.14381  -0.01222  -3.53515   0.76953 -13.98034
  2.15539   0.34167  -6.20264   0.27095  -1.13023   0.01832  -3.53424   0.73573 -13.94346
  2.20551   0.33906  -6.18564   0.25666  -1.11736   0.05062  -3.53170   0.70990 -13.90788
  2.25564   0.34967  -6.16812   0.25258  -1.10470   0.08456  -3.52746   0.71188 -13.87219
  2.30576   0.38006  -6.14907   0.26120  -1.09161   0.12207  -3.52134   0.75691 -13.83425
  2.35589   0.43419  -6.12730   0.28280  -1.07743   0.16622  -3.51301   0.85354 -13.79147
  2.40602   0.51287  -6.10159   0.31613  -1.06159   0.21937  -3.50201   1.00312 -13.74119
  2.45614   0.61285  -6.07088   0.35859  -1.04361   0.28130  -3.48791   1.19864 -13.68110
  2.50627   0.72527  -6.03452   0.40566  -1.02328   0.34831  -3.47045   1.42183 -13.60983
  2.55639   0.83497  -5.99267   0.45017  -1.00071   0.41369  -3.44972   1.64104 -13.52758
  2.60652   0.92235  -5.94644   0.48291  -0.97651   0.46947  -3.42618   1.81465 -13.43662
  2.65664   0.96870  -5.89788   0.49500  -0.95169   0.50880  -3.40068   1.90230 -13.34126
  2.70677   0.96327  -5.84959   0.48145  -0.92756   0.52813  -3.37421   1.88023 -13.24702
  2.75689   0.90807  -5.80408   0.44373  -0.90532   0.52829  -3.34773   1.75218 -13.15919
  2.80702   0.81738  -5.76311   0.38963  -0.88579   0.51377  -3.32197   1.54874 -13.08156
  2.85714   0.71233  -5.72740   0.33038  -0.86923   0.49105  -3.29736   1.31556 -13.01561
  2.90727   0.61354  -5.69665   0.27658  -0.85536   0.46684  -3.27396   1.09719 -12.96062
  2.95739   0.53577  -5.66979   0.23521  -0.84357   0.44712  -3.25155   0.92497 -12.91425
  3.00752   0.48618  -5.64542   0.20882  -0.83311   0.43670  -3.22966   0.81301 -12.87350
  3.05764   0.46545  -5.62209   0.19644  -0.82326   0.43888  -3.20766   0.76105 -12.83535
  3.10777   0.46995  -5.59853   0.19507  -0.81348   0.45478  -3.18486   0.76001 -12.79726
  3.15789   0.49340  -5.57380   0.20084  -0.80342   0.48267  -3.16067   0.79668 -12.75732
  3.20802   0.52795  -5.54734   0.20975  -0.79290   0.51782  -3.13471   0.85628 -12.71440
  3.25815   0.56518  -5.51901   0.21824  -0.78196   0.55353  -3.10697   0.92379 -12.66810
  3.30827   0.59748  -5.48906   0.22385  -0.77074   0.58311  -3.07774   0.98549 -12.61870
  3.35840   0.61955  -5.45800   0.22553  -0.75944   0.60218  -3.04755   1.03093 -12.56702
  3.40852   0.62933  -5.42646   0.22345  -0.74824   0.60995  -3.01698   1.05460 -12.51416
  3.45865   0.62791  -5.39498   0.21835  -0.73729   0.60897  -2.98646   1.05642 -12.46121
  3.50877   0.61866  -5.36397   0.21095  -0.72672   0.60388  -2.95619   1.04116 -12.40902
  3.55890   0.60649  -5.33357   0.20186  -0.71660   0.60024  -2.92610   1.01738 -12.35802
  3.60902   0.59735  -5.30363   0.19192  -0.70698   0.60398  -2.89582   0.99616 -12.30809
  3.65915   0.59756  -5.27368   0.18255  -0.69783   0.62104  -2.86469   0.98910 -12.25851
  3.70927   0.61253  -5.24297   0.17560  -0.68903   0.65633  -2.83180   1.00567 -12.20810
  3.75940   0.64484  -5.21065   0.17270  -0.68037   0.71177  -2.79612   1.05006 -12.15547
  3.80952   0.69253  -5.17594   0.17457  -0.67162   0.78409  -2.75682   1.11894 -12.09938
  3.85965   0.74836  -5.13843   0.18058  -0.66257   0.86365  -2.71353   1.20085 -12.03919
  3.90977   0.80086  -5.09828   0.18870  -0.65311   0.93567  -2.66662   1.27822 -11.97511
  3.95990   0.83749  -5.05630   0.19597  -0.64329   0.98438  -2.61728   1.33211 -11.90834
  4.01003   0.84902  -5.01375   0.19933  -0.63330   0.99889  -2.56721   1.34883 -11.84073
  4.06015   0.83381  -4.97195   0.19677  -0.62343   0.97837  -2.51817   1.32628 -11.77425
  4.11028   0.79949  -4.93188   0.18826  -0.61400   0.93330  -2.47139   1.27690 -11.71025
  4.16040   0.76085  -4.89374   0.17594  -0.60518   0.88177  -2.42719   1.22485 -11.64885
  4.21053   0.73446  -4.85692   0.16321  -0.59700   0.84248  -2.38496   1.19770 -11.58882
  4.26065   0.73238  -4.82021   0.15328  -0.58931   0.82813  -2.34345   1.21572 -11.52788
  4.31078   0.75772  -4.78223   0.14785  -0.58190   0.84190  -2.30125   1.28342 -11.46355
  4.36090   0.80354  -4.74196   0.14657  -0.57456   0.87761  -2.25726   1.38644 -11.39405
  4.41103   0.85527  -4.69908   0.14746  -0.56716   0.92280  -2.21100   1.49556 -11.31908
  4.46115   0.89622  -4.65416   0.14809  -0.55974   0.96345  -2.16271   1.57713 -11.24003
  4.51128   0.91437  -4.60833   0.14682  -0.55238   0.98943  -2.11311   1.60687 -11.15949
  4.56140   0.90788  -4.56282   0.14356  -0.54519   0.99884  -2.06305   1.58124 -11.08022
  4.61153   0.88602  -4.51841   0.13975  -0.53818   0.99872  -2.01299   1.51960 -11.00405
  4.66165   0.86442  -4.47508   0.13764  -0.53128   1.00097  -1.96281   1.45465 -10.93114
  4.71178   0.85701  -4.43212   0.13942  -0.52429   1.01554  -1.91191   1.41608 -10.86016
  4.76190   0.86953  -4.38853   0.14655  -0.51695   1.04498  -1.85953   1.41706 -10.78913
  4.81203   0.89817  -4.34351   0.15945  -0.50896   1.08330  -1.80523   1.45175 -10.71636
  4.86216   0.93357  -4.29672   0.17739  -0.50006   1.11918  -1.74913   1.50415 -10.64096
  4.91228   0.96655  -4.24827   0.19847  -0.49012   1.14057  -1.69196   1.56061 -10.56274
  4.96241   0.99166  -4.19856   0.21986  -0.47909   1.13835  -1.63490   1.61676 -10.48170
  5.01253   1.00726  -4.14807   0.23846  -0.46714   1.10867  -1.57932   1.67465 -10.39775
  5.06266   1.01365  -4.09726   0.25189  -0.45452   1.05416  -1.52648   1.73491 -10.31079
  5.11278   1.01202  -4.04654   0.25956  -0.44151   0.98412  -1.47715   1.79237 -10.22095
  5.16291   1.00495  -3.99616   0.26297  -0.42832   0.91236  -1.43142   1.83951 -10.12874
  5.21303   0.99715  -3.94618   0.26520  -0.41503   0.85285  -1.38867   1.87339 -10.03484
  5.26316   0.99459  -3.89633   0.26954  -0.40152   0.81515  -1.34781   1.89907  -9.93965
  5.31328   1.00221  -3.84609   0.27795  -0.38759   0.80256  -1.30758   1.92611  -9.84310
  5.36341   1.02199  -3.79486   0.29019  -0.37304   0.81347  -1.26681   1.96231  -9.74474
  5.41353   1.05253  -3.74210   0.30389  -0.35781   0.84375  -1.22452   2.00995  -9.64399
  5.46366   1.08974  -3.68748   0.31547  -0.34200   0.88747  -1.18003   2.06628  -9.54042
  5.51378   1.12771  -3.63095   0.32145  -0.32588   0.93562  -1.13313   2.12605  -9.43385
  5.56391   1.15967  -3.57283   0.31975  -0.30986   0.97542  -1.08424   2.18385  -9.32438
  5.61404   1.17983  -3.51369   0.31031  -0.29430   0.99310  -1.03446   2.23609  -9.21230
  5.66416   1.18594  -3.45424   0.29479  -0.27952   0.97953  -0.98536   2.28349  -9.09784
  5.71429   1.18153  -3.39502   0.27567  -0.26571   0.93506  -0.93849   2.33386  -8.98085
  5.76441   1.17603  -3.33607   0.25522  -0.25291   0.86956  -0.89490   2.40331  -8.86038
  5.81454   1.18215  -3.27681   0.23522  -0.24112   0.79750  -0.85493   2.51373  -8.73438
  5.86466   1.21127  -3.21610   0.21702  -0.23025   0.73183  -0.81825   2.68496  -8.59980
  5.91479   1.26849  -3.15251   0.20160  -0.22014   0.68050  -0.78414   2.92338  -8.45326
  5.96491   1.34957  -3.08487   0.18943  -0.21064   0.64675  -0.75172   3.21252  -8.29223
  6.01504   1.44149  -3.01261   0.18043  -0.20160   0.63097  -0.72009   3.51306  -8.11614
  6.06516   1.52769  -2.93603   0.17432  -0.19286   0.63210  -0.68841   3.77664  -7.92683
  6.11529   1.59613  -2.85603   0.17117  -0.18428   0.64783  -0.65593   3.96941  -7.72787
  6.16541   1.64592  -2.77353   0.17135  -0.17569   0.67407  -0.62215   4.09233  -7.52274
  6.21554   1.68771  -2.68893   0.17482  -0.16693   0.70455  -0.58683   4.18375  -7.31303
  6.26566   1.73688  -2.60187   0.18014  -0.15790   0.73097  -0.55019   4.29953  -7.09751
  6.31579   1.80352  -2.51146   0.18447  -0.14865   0.74432  -0.51288   4.48178  -6.87286
  6.36591   1.88573  -2.41694   0.18477  -0.13939   0.73769  -0.47590   4.73472  -6.63553
  6.41604   1.97000  -2.31820   0.17954  -0.13039   0.70914  -0.44036   5.02132  -6.38383
  6.46617   2.03776  -2.21605   0.16971  -0.12189   0.66301  -0.40712   5.28057  -6.11914