ESCALE ; pCOOP file generated by LOBSTER. Energy is shifted such that the Fermi level lies at 0 eV.
         4          1        401  -8.40578e+00   1.16443e+01   1.61928e+00 
Average
No.1:Ru44->N65(2.1384787971206856)
No.2:Hf10->N65(2.2208536909014858)
No.3:N65->N66(1.28638534153522)
-10.02506   0.00000   0.12650   0.00000   0.01018   0.00000   0.05356   0.00000   0.31576
 -9.97494   0.00000   0.12650   0.00000   0.01018   0.00000   0.05356   0.00000   0.31576
 -9.92481   0.00000   0.12650   0.00000   0.01018   0.00000   0.05356   0.00000   0.31576
 -9.87469   0.00000   0.12650   0.00000   0.01018   0.00000   0.05356   0.00000   0.31576
 -9.82456   0.00000   0.12650   0.00000   0.01018   0.00000   0.05356   0.00000   0.31576
 -9.77444   0.00000   0.12650   0.00000   0.01018   0.00000   0.05356   0.00000   0.31576
 -9.72431   0.00000   0.12650   0.00000   0.01018   0.00000   0.05356   0.00000   0.31576
 -9.67419   0.00000   0.12650   0.00000   0.01018   0.00000   0.05356   0.00000   0.31576
 -9.62406   0.00000   0.12650   0.00000   0.01018   0.00000   0.05356   0.00000   0.31576
 -9.57393   0.00000   0.12650   0.00000   0.01018   0.00000   0.05356   0.00000   0.31576
 -9.52381   0.00000   0.12650   0.00000   0.01018   0.00000   0.05356   0.00000   0.31576
 -9.47368   0.00000   0.12650   0.00000   0.01018   0.00000   0.05356   0.00000   0.31576
 -9.42356   0.00000   0.12650   0.00000   0.01018   0.00000   0.05356   0.00000   0.31576
 -9.37343   0.00000   0.12650   0.00000   0.01018   0.00000   0.05356   0.00000   0.31576
 -9.32331   0.00000   0.12650   0.00000   0.01018   0.00000   0.05356   0.00000   0.31576
 -9.27318   0.00000   0.12650   0.00000   0.01018   0.00000   0.05356   0.00000   0.31576
 -9.22306   0.00000   0.12650   0.00000   0.01018   0.00000   0.05356   0.00000   0.31576
 -9.17293   0.00000   0.12650   0.00000   0.01018   0.00000   0.05356   0.00000   0.31576
 -9.12281   0.00000   0.12650   0.00000   0.01018   0.00000   0.05356   0.00000   0.31576
 -9.07268   0.00000   0.12650   0.00000   0.01018   0.00000   0.05356   0.00000   0.31576
 -9.02256   0.00000   0.12650   0.00000   0.01018   0.00000   0.05356   0.00000   0.31576
 -8.97243   0.00000   0.12650   0.00000   0.01018   0.00000   0.05356   0.00000   0.31576
 -8.92231   0.00000   0.12650   0.00000   0.01018   0.00000   0.05356   0.00000   0.31576
 -8.87218   0.00001   0.12650   0.00000   0.01018   0.00000   0.05356   0.00001   0.31576
 -8.82206   0.00002   0.12650   0.00000   0.01018   0.00001   0.05356   0.00004   0.31576
 -8.77193   0.00006   0.12650   0.00001   0.01018   0.00004   0.05356   0.00012   0.31577
 -8.72180   0.00016   0.12651   0.00004   0.01019   0.00010   0.05357   0.00033   0.31578
 -8.67168   0.00039   0.12653   0.00010   0.01019   0.00025   0.05358   0.00083   0.31582
 -8.62155   0.00088   0.12658   0.00022   0.01020   0.00055   0.05361   0.00188   0.31592
 -8.57143   0.00180   0.12667   0.00046   0.01022   0.00112   0.05367   0.00383   0.31611
 -8.52130   0.00334   0.12683   0.00086   0.01027   0.00205   0.05377   0.00710   0.31647
 -8.47118   0.00565   0.12712   0.00147   0.01034   0.00344   0.05394   0.01205   0.31707
 -8.42105   0.00882   0.12756   0.00232   0.01046   0.00531   0.05421   0.01884   0.31801
 -8.37093   0.01281   0.12820   0.00343   0.01063   0.00759   0.05459   0.02741   0.31939
 -8.32080   0.01751   0.12908   0.00480   0.01087   0.01017   0.05510   0.03758   0.32127
 -8.27068   0.02290   0.13023   0.00643   0.01119   0.01297   0.05575   0.04929   0.32374
 -8.22055   0.02910   0.13169   0.00842   0.01161   0.01603   0.05655   0.06285   0.32689
 -8.17043   0.03638   0.13351   0.01087   0.01216   0.01949   0.05753   0.07878   0.33084
 -8.12030   0.04491   0.13576   0.01384   0.01285   0.02349   0.05871   0.09739   0.33572
 -8.07018   0.05442   0.13849   0.01726   0.01372   0.02795   0.06011   0.11804   0.34164
 -8.02005   0.06412   0.14170   0.02088   0.01477   0.03245   0.06173   0.13901   0.34861
 -7.96992   0.07290   0.14536   0.02436   0.01599   0.03632   0.06355   0.15802   0.35653
 -7.91980   0.08000   0.14937   0.02746   0.01736   0.03884   0.06550   0.17370   0.36524
 -7.86967   0.08569   0.15366   0.03034   0.01888   0.03961   0.06749   0.18711   0.37462
 -7.81955   0.09164   0.15826   0.03368   0.02057   0.03876   0.06943   0.20249   0.38477
 -7.76942   0.10053   0.16329   0.03848   0.02250   0.03689   0.07128   0.22622   0.39610
 -7.71930   0.11472   0.16904   0.04563   0.02479   0.03480   0.07302   0.26371   0.40932
 -7.66917   0.13439   0.17578   0.05507   0.02755   0.03307   0.07468   0.31503   0.42511
 -7.61905   0.15630   0.18362   0.06532   0.03082   0.03178   0.07627   0.37181   0.44375
 -7.56892   0.17412   0.19234   0.07359   0.03451   0.03050   0.07780   0.41827   0.46472
 -7.51880   0.18089   0.20141   0.07692   0.03837   0.02858   0.07923   0.43716   0.48663
 -7.46867   0.17242   0.21005   0.07355   0.04205   0.02553   0.08051   0.41819   0.50759
 -7.41855   0.14959   0.21755   0.06388   0.04526   0.02139   0.08159   0.36349   0.52581
 -7.36842   0.11789   0.22346   0.05034   0.04778   0.01667   0.08242   0.28666   0.54018
 -7.31830   0.08480   0.22771   0.03616   0.04959   0.01211   0.08303   0.20613   0.55051
 -7.26817   0.05657   0.23055   0.02401   0.05080   0.00832   0.08345   0.13739   0.55740
 -7.21805   0.03646   0.23237   0.01528   0.05156   0.00560   0.08373   0.08850   0.56184
 -7.16792   0.02472   0.23361   0.01005   0.05206   0.00398   0.08393   0.06014   0.56485
 -7.11779   0.01977   0.23460   0.00763   0.05245   0.00334   0.08409   0.04833   0.56727
 -7.06767   0.01939   0.23558   0.00710   0.05280   0.00363   0.08428   0.04744   0.56965
 -7.01754   0.02153   0.23666   0.00761   0.05318   0.00493   0.08452   0.05204   0.57226
 -6.96742   0.02463   0.23789   0.00858   0.05361   0.00752   0.08490   0.05780   0.57516
 -6.91729   0.02775   0.23928   0.00966   0.05410   0.01184   0.08549   0.06176   0.57825
 -6.86717   0.03056   0.24081   0.01082   0.05464   0.01840   0.08642   0.06246   0.58138
 -6.81704   0.03317   0.24248   0.01219   0.05525   0.02755   0.08780   0.05978   0.58438
 -6.76692   0.03589   0.24428   0.01398   0.05595   0.03898   0.08975   0.05473   0.58712
 -6.71679   0.03884   0.24622   0.01627   0.05677   0.05133   0.09232   0.04891   0.58957
 -6.66667   0.04164   0.24831   0.01889   0.05772   0.06217   0.09544   0.04387   0.59177
 -6.61654   0.04351   0.25049   0.02140   0.05879   0.06869   0.09888   0.04044   0.59380
 -6.56642   0.04350   0.25267   0.02320   0.05995   0.06895   0.10234   0.03835   0.59572
 -6.51629   0.04100   0.25473   0.02376   0.06114   0.06286   0.10549   0.03640   0.59755
 -6.46617   0.03612   0.25654   0.02281   0.06228   0.05225   0.10811   0.03330   0.59922
 -6.41604   0.02962   0.25802   0.02039   0.06331   0.04004   0.11012   0.02843   0.60064
 -6.36591   0.02265   0.25916   0.01682   0.06415   0.02893   0.11157   0.02219   0.60175
 -6.31579   0.01630   0.25997   0.01256   0.06478   0.02064   0.11260   0.01571   0.60254
 -6.26566   0.01132   0.26054   0.00815   0.06519   0.01562   0.11338   0.01019   0.60305
 -6.21554   0.00794   0.26094   0.00402   0.06539   0.01343   0.11406   0.00638   0.60337
 -6.16541   0.00598   0.26124   0.00049   0.06541   0.01309   0.11471   0.00437   0.60359
 -6.11529   0.00499   0.26149  -0.00226   0.06530   0.01346   0.11539   0.00378   0.60378
 -6.06516   0.00446   0.26171  -0.00418   0.06509   0.01358   0.11607   0.00397   0.60398
 -6.01504   0.00397   0.26191  -0.00533   0.06482   0.01290   0.11672   0.00433   0.60420
 -5.96491   0.00332   0.26208  -0.00579   0.06453   0.01130   0.11728   0.00446   0.60442
 -5.91479   0.00254   0.26221  -0.00569   0.06425   0.00907   0.11774   0.00424   0.60463
 -5.86466   0.00173   0.26229  -0.00518   0.06399   0.00665   0.11807   0.00374   0.60482
 -5.81454   0.00105   0.26235  -0.00439   0.06377   0.00442   0.11829   0.00313   0.60498
 -5.76441   0.00056   0.26237  -0.00349   0.06359   0.00262   0.11842   0.00255   0.60510
 -5.71429   0.00027   0.26239  -0.00259   0.06346   0.00134   0.11849   0.00206   0.60521
 -5.66416   0.00012   0.26239  -0.00181   0.06337   0.00052   0.11852   0.00164   0.60529
 -5.61404   0.00006   0.26240  -0.00118   0.06331   0.00008   0.11852   0.00126   0.60535
 -5.56391   0.00003   0.26240  -0.00073   0.06328  -0.00010   0.11852   0.00092   0.60540
 -5.51378   0.00002   0.26240  -0.00042   0.06326  -0.00014   0.11851   0.00062   0.60543
 -5.46366   0.00001   0.26240  -0.00023   0.06325  -0.00012   0.11850   0.00039   0.60545
 -5.41353   0.00001   0.26240  -0.00012   0.06324  -0.00008   0.11850   0.00022   0.60546
 -5.36341   0.00000   0.26240  -0.00006   0.06324  -0.00004   0.11850   0.00011   0.60547
 -5.31328   0.00000   0.26240  -0.00003   0.06324  -0.00002   0.11850   0.00005   0.60547
 -5.26316   0.00000   0.26240  -0.00001   0.06323  -0.00001   0.11850   0.00002   0.60547
 -5.21303   0.00000   0.26240  -0.00000   0.06323  -0.00000   0.11850   0.00001   0.60547
 -5.16291   0.00000   0.26240  -0.00000   0.06323  -0.00000   0.11850   0.00000   0.60547
 -5.11278   0.00000   0.26240  -0.00000   0.06323   0.00000   0.11850   0.00000   0.60547
 -5.06266   0.00000   0.26240  -0.00000   0.06323   0.00000   0.11850   0.00000   0.60547
 -5.01253   0.00000   0.26240  -0.00001   0.06323   0.00000   0.11850   0.00001   0.60547
 -4.96241   0.00000   0.26240  -0.00001   0.06323  -0.00000   0.11850   0.00002   0.60547
 -4.91228  -0.00000   0.26240  -0.00003   0.06323  -0.00001   0.11849   0.00004   0.60547
 -4.86216  -0.00001   0.26240  -0.00006   0.06323  -0.00004   0.11849   0.00007   0.60548
 -4.81203  -0.00004   0.26240  -0.00012   0.06322  -0.00012   0.11849   0.00012   0.60548
 -4.76190  -0.00010   0.26239  -0.00021   0.06321  -0.00026   0.11847   0.00016   0.60549
 -4.71178  -0.00023   0.26238  -0.00032   0.06320  -0.00052   0.11845   0.00015   0.60550
 -4.66165  -0.00046   0.26236  -0.00047   0.06317  -0.00095   0.11840   0.00005   0.60550
 -4.61153  -0.00080   0.26232  -0.00062   0.06314  -0.00156   0.11832  -0.00021   0.60549
 -4.56140  -0.00126   0.26225  -0.00074   0.06310  -0.00237   0.11820  -0.00067   0.60546
 -4.51128  -0.00181   0.26216  -0.00083   0.06306  -0.00329   0.11804  -0.00131   0.60539
 -4.46115  -0.00239   0.26204  -0.00087   0.06302  -0.00420   0.11783  -0.00209   0.60528
 -4.41103  -0.00290   0.26190  -0.00086   0.06298  -0.00491   0.11758  -0.00294   0.60514
 -4.36090  -0.00330   0.26173  -0.00084   0.06293  -0.00528   0.11732  -0.00378   0.60495
 -4.31078  -0.00356   0.26155  -0.00081   0.06289  -0.00527   0.11705  -0.00461   0.60472
 -4.26065  -0.00373   0.26137  -0.00076   0.06286  -0.00499   0.11680  -0.00545   0.60444
 -4.21053  -0.00387   0.26117  -0.00063   0.06282  -0.00464   0.11657  -0.00633   0.60413
 -4.16040  -0.00400   0.26097  -0.00037   0.06281  -0.00438   0.11635  -0.00725   0.60376
 -4.11028  -0.00412   0.26077   0.00003   0.06281  -0.00425   0.11614  -0.00815   0.60335
 -4.06015  -0.00418   0.26056   0.00053   0.06283  -0.00411   0.11593  -0.00897   0.60291
 -4.01003  -0.00414   0.26035   0.00103   0.06289  -0.00374   0.11574  -0.00971   0.60242
 -3.95990  -0.00400   0.26015   0.00150   0.06296  -0.00290   0.11560  -0.01060   0.60189
 -3.90977  -0.00387   0.25995   0.00195   0.06306  -0.00146   0.11552  -0.01210   0.60128
 -3.85965  -0.00390   0.25976   0.00258   0.06319   0.00060   0.11555  -0.01487   0.60054
 -3.80952  -0.00425   0.25955   0.00373   0.06337   0.00318   0.11571  -0.01966   0.59955
 -3.75940  -0.00504   0.25929   0.00584   0.06367   0.00627   0.11603  -0.02725   0.59818
 -3.70927  -0.00635   0.25897   0.00938   0.06414   0.00989   0.11652  -0.03834   0.59626
 -3.65915  -0.00819   0.25856   0.01460   0.06487   0.01412   0.11723  -0.05330   0.59359
 -3.60902  -0.01051   0.25804   0.02132   0.06594   0.01893   0.11818  -0.07180   0.58999
 -3.55890  -0.01319   0.25738   0.02884   0.06738   0.02399   0.11938  -0.09239   0.58536
 -3.50877  -0.01595   0.25658   0.03598   0.06919   0.02864   0.12082  -0.11248   0.57972
 -3.45865  -0.01846   0.25565   0.04147   0.07127   0.03208   0.12243  -0.12894   0.57326
 -3.40852  -0.02038   0.25463   0.04432   0.07349   0.03368   0.12412  -0.13913   0.56629
 -3.35840  -0.02149   0.25355   0.04417   0.07570   0.03325   0.12578  -0.14188   0.55917
 -3.30827  -0.02178   0.25246   0.04136   0.07777   0.03110   0.12734  -0.13779   0.55227
 -3.25815  -0.02144   0.25139   0.03664   0.07961   0.02785   0.12874  -0.12880   0.54581
 -3.20802  -0.02076   0.25035   0.03091   0.08116   0.02414   0.12995  -0.11733   0.53993
 -3.15789  -0.02007   0.24934   0.02494   0.08241   0.02045   0.13097  -0.10560   0.53464
 -3.10777  -0.01964   0.24836   0.01928   0.08338   0.01697   0.13182  -0.09516   0.52987
 -3.05764  -0.01957   0.24737   0.01424   0.08409   0.01372   0.13251  -0.08666   0.52552
 -3.00752  -0.01980   0.24638   0.00994   0.08459   0.01049   0.13304  -0.07982   0.52152
 -2.95739  -0.02015   0.24537   0.00633   0.08491   0.00694   0.13338  -0.07373   0.51783
 -2.90727  -0.02047   0.24435   0.00327   0.08507   0.00263   0.13352  -0.06731   0.51445
 -2.85714  -0.02071   0.24331   0.00062   0.08510  -0.00274   0.13338  -0.05999   0.51145
 -2.80702  -0.02094   0.24226  -0.00172   0.08502  -0.00915   0.13292  -0.05194   0.50884
 -2.75689  -0.02129   0.24119  -0.00385   0.08482  -0.01606   0.13211  -0.04398   0.50664
 -2.70677  -0.02184   0.24010  -0.00584   0.08453  -0.02249   0.13099  -0.03720   0.50477
 -2.65664  -0.02256   0.23897  -0.00775   0.08414  -0.02735   0.12962  -0.03258   0.50314
 -2.60652  -0.02338   0.23779  -0.00959   0.08366  -0.02986   0.12812  -0.03069   0.50160
 -2.55639  -0.02424   0.23658  -0.01127   0.08310  -0.02984   0.12662  -0.03162   0.50002
 -2.50627  -0.02512   0.23532  -0.01265   0.08246  -0.02767   0.12524  -0.03505   0.49826
 -2.45614  -0.02597   0.23402  -0.01353   0.08178  -0.02400   0.12403  -0.04039   0.49624
 -2.40602  -0.02669   0.23268  -0.01383   0.08109  -0.01935   0.12306  -0.04688   0.49389
 -2.35589  -0.02711   0.23132  -0.01360   0.08041  -0.01409   0.12236  -0.05362   0.49120
 -2.30576  -0.02710   0.22996  -0.01311   0.07975  -0.00852   0.12193  -0.05966   0.48821
 -2.25564  -0.02661   0.22863  -0.01271   0.07911  -0.00300   0.12178  -0.06414   0.48499
 -2.20551  -0.02575   0.22734  -0.01264   0.07848   0.00200   0.12188  -0.06662   0.48165
 -2.15539  -0.02468   0.22610  -0.01294   0.07783   0.00606   0.12218  -0.06717   0.47829
 -2.10526  -0.02359   0.22492  -0.01337   0.07716   0.00895   0.12263  -0.06634   0.47496
 -2.05514  -0.02258   0.22379  -0.01363   0.07648   0.01058   0.12316  -0.06470   0.47172
 -2.00501  -0.02168   0.22270  -0.01355   0.07580   0.01099   0.12371  -0.06247   0.46859
 -1.95489  -0.02082   0.22166  -0.01319   0.07514   0.01022   0.12423  -0.05949   0.46560
 -1.90476  -0.01998   0.22065  -0.01278   0.07450   0.00835   0.12464  -0.05550   0.46282
 -1.85464  -0.01915   0.21970  -0.01253   0.07387   0.00557   0.12492  -0.05049   0.46029
 -1.80451  -0.01839   0.21877  -0.01253   0.07324   0.00225   0.12504  -0.04489   0.45804
 -1.75439  -0.01774   0.21788  -0.01265   0.07261  -0.00116   0.12498  -0.03940   0.45607
 -1.70426  -0.01720   0.21702  -0.01277   0.07197  -0.00421   0.12477  -0.03462   0.45433
 -1.65414  -0.01675   0.21618  -0.01283   0.07132  -0.00661   0.12444  -0.03080   0.45279
 -1.60401  -0.01634   0.21536  -0.01290   0.07068  -0.00828   0.12402  -0.02784   0.45139
 -1.55388  -0.01597   0.21456  -0.01318   0.07002  -0.00928   0.12356  -0.02547   0.45012
 -1.50376  -0.01567   0.21378  -0.01384   0.06932  -0.00972   0.12307  -0.02345   0.44894
 -1.45363  -0.01548   0.21300  -0.01498   0.06857  -0.00971   0.12258  -0.02174   0.44785
 -1.40351  -0.01543   0.21223  -0.01658   0.06774  -0.00935   0.12211  -0.02036   0.44683
 -1.35338  -0.01556   0.21145  -0.01852   0.06681  -0.00880   0.12167  -0.01937   0.44586
 -1.30326  -0.01585   0.21065  -0.02058   0.06578  -0.00824   0.12126  -0.01874   0.44492
 -1.25313  -0.01627   0.20984  -0.02251   0.06465  -0.00788   0.12086  -0.01841   0.44400
 -1.20301  -0.01675   0.20900  -0.02404   0.06345  -0.00786   0.12047  -0.01836   0.44308
 -1.15288  -0.01724   0.20813  -0.02495   0.06220  -0.00816   0.12006  -0.01863   0.44214
 -1.10276  -0.01768   0.20725  -0.02515   0.06094  -0.00864   0.11963  -0.01925   0.44118
 -1.05263  -0.01799   0.20635  -0.02471   0.05970  -0.00909   0.11917  -0.02018   0.44017
 -1.00251  -0.01811   0.20544  -0.02387   0.05850  -0.00925   0.11871  -0.02121   0.43910
 -0.95238  -0.01798   0.20454  -0.02292   0.05735  -0.00899   0.11826  -0.02201   0.43800
 -0.90226  -0.01756   0.20366  -0.02214   0.05624  -0.00828   0.11784  -0.02226   0.43688
 -0.85213  -0.01689   0.20281  -0.02174   0.05515  -0.00723   0.11748  -0.02171   0.43580
 -0.80201  -0.01604   0.20201  -0.02181   0.05406  -0.00600   0.11718  -0.02030   0.43478
 -0.75188  -0.01512   0.20125  -0.02244   0.05293  -0.00475   0.11694  -0.01818   0.43387
 -0.70175  -0.01427   0.20053  -0.02369   0.05175  -0.00354   0.11676  -0.01557   0.43309
 -0.65163  -0.01356   0.19985  -0.02558   0.05046  -0.00235   0.11665  -0.01274   0.43245
 -0.60150  -0.01301   0.19920  -0.02814   0.04905  -0.00107   0.11659  -0.00982   0.43196
 -0.55138  -0.01257   0.19857  -0.03123   0.04749   0.00039   0.11661  -0.00687   0.43161
 -0.50125  -0.01215   0.19796  -0.03467   0.04575   0.00207   0.11672  -0.00386   0.43142
 -0.45113  -0.01168   0.19738  -0.03821   0.04384   0.00398   0.11692  -0.00080   0.43138
 -0.40100  -0.01112   0.19682  -0.04163   0.04175   0.00605   0.11722   0.00221   0.43149
 -0.35088  -0.01054   0.19629  -0.04476   0.03951   0.00815   0.11763   0.00497   0.43174
 -0.30075  -0.01003   0.19579  -0.04738   0.03713   0.01007   0.11813   0.00722   0.43210
 -0.25063  -0.00967   0.19530  -0.04920   0.03466   0.01151   0.11871   0.00866   0.43253
 -0.20050  -0.00956   0.19482  -0.04988   0.03216   0.01214   0.11932   0.00908   0.43299
 -0.15038  -0.00974   0.19434  -0.04921   0.02970   0.01166   0.11990   0.00833   0.43341
 -0.10025  -0.01029   0.19382  -0.04723   0.02733   0.00991   0.12040   0.00646   0.43373
 -0.05013  -0.01125   0.19326  -0.04431   0.02511   0.00688   0.12074   0.00368   0.43391
  0.00000  -0.01264   0.19262  -0.04103   0.02305   0.00275   0.12088   0.00036   0.43393
  0.05013  -0.01441   0.19190  -0.03798   0.02115  -0.00213   0.12077  -0.00312   0.43378
  0.10025  -0.01639   0.19108  -0.03552   0.01937  -0.00723   0.12041  -0.00641   0.43345
  0.15038  -0.01831   0.19016  -0.03365   0.01768  -0.01195   0.11981  -0.00935   0.43299
  0.20050  -0.01989   0.18916  -0.03202   0.01608  -0.01566   0.11903  -0.01200   0.43238
  0.25063  -0.02091   0.18811  -0.03018   0.01456  -0.01797   0.11813  -0.01458   0.43165
  0.30075  -0.02133   0.18705  -0.02784   0.01317  -0.01874   0.11719  -0.01741   0.43078
  0.35088  -0.02131   0.18598  -0.02511   0.01191  -0.01817   0.11628  -0.02065   0.42975
  0.40100  -0.02110   0.18492  -0.02253   0.01078  -0.01660   0.11545  -0.02416   0.42854
  0.45113  -0.02091   0.18387  -0.02078   0.00974  -0.01442   0.11472  -0.02751   0.42716
  0.50125  -0.02082   0.18283  -0.02039   0.00872  -0.01193   0.11412  -0.03012   0.42565
  0.55138  -0.02080   0.18179  -0.02154   0.00764  -0.00934   0.11366  -0.03153   0.42407
  0.60150  -0.02079   0.18074  -0.02394   0.00644  -0.00680   0.11331  -0.03163   0.42248
  0.65163  -0.02071   0.17971  -0.02698   0.00508  -0.00444   0.11309  -0.03069   0.42094
  0.70175  -0.02047   0.17868  -0.02978   0.00359  -0.00250   0.11297  -0.02913   0.41948
  0.75188  -0.02001   0.17768  -0.03149   0.00201  -0.00119   0.11291  -0.02734   0.41811
  0.80201  -0.01927   0.17671  -0.03154   0.00043  -0.00069   0.11287  -0.02558   0.41683
  0.85213  -0.01830   0.17579  -0.02985  -0.00107  -0.00102   0.11282  -0.02404   0.41562
  0.90226  -0.01729   0.17493  -0.02691  -0.00241  -0.00196   0.11272  -0.02300   0.41447
  0.95238  -0.01663   0.17409  -0.02363  -0.00360  -0.00316   0.11257  -0.02311   0.41331
  1.00251  -0.01693   0.17324  -0.02106  -0.00465  -0.00428   0.11235  -0.02545   0.41204
  1.05263  -0.01892   0.17230  -0.02012  -0.00566  -0.00508   0.11210  -0.03154   0.41046
  1.10276  -0.02326   0.17113  -0.02138  -0.00673  -0.00541   0.11182  -0.04300   0.40830
  1.15288  -0.03027   0.16961  -0.02498  -0.00799  -0.00500   0.11157  -0.06082   0.40525
  1.20301  -0.03956   0.16763  -0.03060  -0.00952  -0.00334   0.11141  -0.08473   0.40100
  1.25313  -0.05002   0.16512  -0.03757  -0.01140   0.00019   0.11142  -0.11267   0.39536
  1.30326  -0.06000   0.16212  -0.04491  -0.01365   0.00598   0.11172  -0.14108   0.38829
  1.35338  -0.06783   0.15872  -0.05152  -0.01624   0.01373   0.11240  -0.16572   0.37998
  1.40351  -0.07225   0.15509  -0.05637  -0.01906   0.02226   0.11352  -0.18265   0.37082
  1.45363  -0.07271   0.15145  -0.05869  -0.02200   0.02974   0.11501  -0.18919   0.36134
  1.50376  -0.06940   0.14797  -0.05817  -0.02492   0.03442   0.11674  -0.18444   0.35210
  1.55388  -0.06316   0.14480  -0.05520  -0.02769   0.03534   0.11851  -0.16962   0.34359
  1.60401  -0.05533   0.14203  -0.05075  -0.03023   0.03274   0.12015  -0.14797   0.33618
  1.65414  -0.04747   0.13965  -0.04609  -0.03254   0.02779   0.12154  -0.12411   0.32996
  1.70426  -0.04104   0.13759  -0.04235  -0.03466   0.02202   0.12264  -0.10278   0.32480
  1.75439  -0.03700   0.13574  -0.04015  -0.03668   0.01663   0.12348  -0.08748   0.32042
  1.80451  -0.03563   0.13395  -0.03949  -0.03866   0.01225   0.12409  -0.07963   0.31643
  1.85464  -0.03650   0.13212  -0.03989  -0.04066   0.00892   0.12454  -0.07853   0.31249
  1.90476  -0.03871   0.13018  -0.04064  -0.04269   0.00641   0.12486  -0.08192   0.30838
  1.95489  -0.04119   0.12812  -0.04103  -0.04475   0.00434   0.12508  -0.08688   0.30403
  2.00501  -0.04300   0.12596  -0.04058  -0.04678   0.00236   0.12520  -0.09077   0.29948
  2.05514  -0.04363   0.12378  -0.03918  -0.04875   0.00022   0.12521  -0.09193   0.29487
  2.10526  -0.04322   0.12161  -0.03716  -0.05061  -0.00224   0.12510  -0.09028   0.29035
  2.15539  -0.04243   0.11948  -0.03512  -0.05237  -0.00501   0.12484  -0.08717   0.28598
  2.20551  -0.04225   0.11737  -0.03376  -0.05406  -0.00809   0.12444  -0.08489   0.28172
  2.25564  -0.04369   0.11518  -0.03355  -0.05575  -0.01161   0.12386  -0.08591   0.27742
  2.30576  -0.04761   0.11279  -0.03474  -0.05749  -0.01590   0.12306  -0.09220   0.27279
  2.35589  -0.05454   0.11006  -0.03733  -0.05936  -0.02139   0.12199  -0.10491   0.26754
  2.40602  -0.06464   0.10682  -0.04118  -0.06142  -0.02845   0.12056  -0.12431   0.26131
  2.45614  -0.07757   0.10293  -0.04601  -0.06373  -0.03708   0.11870  -0.14961   0.25381
  2.50627  -0.09227   0.09830  -0.05137  -0.06630  -0.04685   0.11636  -0.17858   0.24485
  2.55639  -0.10691   0.09294  -0.05652  -0.06914  -0.05692   0.11350  -0.20728   0.23446
  2.60652  -0.11911   0.08697  -0.06052  -0.07217  -0.06634   0.11018  -0.23046   0.22291
  2.65664  -0.12657   0.08063  -0.06247  -0.07530  -0.07430   0.10645  -0.24294   0.21074
  2.70677  -0.12794   0.07422  -0.06185  -0.07840  -0.08039   0.10242  -0.24157   0.19863
  2.75689  -0.12335   0.06803  -0.05879  -0.08135  -0.08463   0.09818  -0.22662   0.18727
  2.80702  -0.11435   0.06230  -0.05402  -0.08406  -0.08722   0.09381  -0.20179   0.17715
  2.85714  -0.10326   0.05713  -0.04860  -0.08649  -0.08843   0.08938  -0.17275   0.16849
  2.90727  -0.09238   0.05249  -0.04353  -0.08867  -0.08847   0.08494  -0.14515   0.16122
  2.95739  -0.08342   0.04831  -0.03947  -0.09065  -0.08769   0.08055  -0.12311   0.15505
  3.00752  -0.07734   0.04444  -0.03666  -0.09249  -0.08672   0.07620  -0.10865   0.14960
  3.05764  -0.07450   0.04070  -0.03508  -0.09425  -0.08639   0.07187  -0.10202   0.14449
  3.10777  -0.07481   0.03695  -0.03458  -0.09598  -0.08751   0.06748  -0.10234   0.13936
  3.15789  -0.07787   0.03305  -0.03491  -0.09773  -0.09054   0.06294  -0.10815   0.13394
  3.20802  -0.08291   0.02889  -0.03574  -0.09952  -0.09532   0.05817  -0.11765   0.12804
  3.25815  -0.08887   0.02444  -0.03671  -0.10136  -0.10104   0.05310  -0.12885   0.12158
  3.30827  -0.09453   0.01970  -0.03744  -0.10324  -0.10644   0.04777  -0.13972   0.11458
  3.35840  -0.09886   0.01474  -0.03770  -0.10513  -0.11035   0.04223  -0.14854   0.10713
  3.40852  -0.10126   0.00967  -0.03740  -0.10701  -0.11210   0.03662  -0.15427   0.09940
  3.45865  -0.10169   0.00457  -0.03657  -0.10884  -0.11177   0.03101  -0.15672   0.09154
  3.50877  -0.10064  -0.00047  -0.03530  -0.11061  -0.11009   0.02549  -0.15653   0.08370
  3.55890  -0.09896  -0.00543  -0.03367  -0.11230  -0.10817   0.02007  -0.15503   0.07592
  3.60902  -0.09765  -0.01033  -0.03179  -0.11389  -0.10727   0.01470  -0.15391   0.06821
  3.65915  -0.09779  -0.01523  -0.02982  -0.11538  -0.10862   0.00925  -0.15491   0.06044
  3.70927  -0.10022  -0.02025  -0.02803  -0.11679  -0.11323   0.00358  -0.15939   0.05246
  3.75940  -0.10533  -0.02553  -0.02666  -0.11813  -0.12153  -0.00252  -0.16780   0.04404
  3.80952  -0.11280  -0.03119  -0.02590  -0.11942  -0.13303  -0.00918  -0.17946   0.03505
  3.85965  -0.12152  -0.03728  -0.02582  -0.12072  -0.14627  -0.01652  -0.19247   0.02540
  3.90977  -0.12985  -0.04379  -0.02639  -0.12204  -0.15905  -0.02449  -0.20413   0.01517
  3.95990  -0.13612  -0.05061  -0.02751  -0.12342  -0.16915  -0.03297  -0.21170   0.00456
  4.01003  -0.13922  -0.05759  -0.02904  -0.12488  -0.17515  -0.04175  -0.21347  -0.00614
  4.06015  -0.13909  -0.06456  -0.03079  -0.12642  -0.17687  -0.05061  -0.20961  -0.01665
  4.11028  -0.13682  -0.07142  -0.03264  -0.12805  -0.17530  -0.05940  -0.20252  -0.02680
  4.16040  -0.13429  -0.07815  -0.03460  -0.12979  -0.17200  -0.06802  -0.19626  -0.03664
  4.21053  -0.13353  -0.08484  -0.03680  -0.13163  -0.16855  -0.07647  -0.19525  -0.04642
  4.26065  -0.13606  -0.09166  -0.03940  -0.13361  -0.16617  -0.08480  -0.20260  -0.05658
  4.31078  -0.14229  -0.09879  -0.04238  -0.13573  -0.16572  -0.09311  -0.21877  -0.06755
  4.36090  -0.15139  -0.10638  -0.04546  -0.13801  -0.16772  -0.10151  -0.24101  -0.07963
  4.41103  -0.16146  -0.11448  -0.04823  -0.14043  -0.17219  -0.11014  -0.26396  -0.09286
  4.46115  -0.17015  -0.12301  -0.05038  -0.14295  -0.17865  -0.11910  -0.28142  -0.10696
  4.51128  -0.17572  -0.13181  -0.05198  -0.14556  -0.18633  -0.12844  -0.28885  -0.12144
  4.56140  -0.17787  -0.14073  -0.05336  -0.14823  -0.19471  -0.13820  -0.28555  -0.13576
  4.61153  -0.17800  -0.14965  -0.05499  -0.15099  -0.20390  -0.14842  -0.27511  -0.14955
  4.66165  -0.17846  -0.15860  -0.05724  -0.15386  -0.21441  -0.15917  -0.26374  -0.16277
  4.71178  -0.18133  -0.16769  -0.06044  -0.15689  -0.22643  -0.17052  -0.25711  -0.17565
  4.76190  -0.18735  -0.17708  -0.06510  -0.16015  -0.23919  -0.18251  -0.25776  -0.18857
  4.81203  -0.19586  -0.18690  -0.07198  -0.16376  -0.25110  -0.19509  -0.26451  -0.20183
  4.86216  -0.20553  -0.19720  -0.08184  -0.16786  -0.26048  -0.20815  -0.27426  -0.21558
  4.91228  -0.21514  -0.20798  -0.09488  -0.17262  -0.26612  -0.22149  -0.28444  -0.22984
  4.96241  -0.22399  -0.21921  -0.11026  -0.17815  -0.26726  -0.23489  -0.29446  -0.24460
  5.01253  -0.23150  -0.23081  -0.12603  -0.18446  -0.26331  -0.24808  -0.30515  -0.25989
  5.06266  -0.23688  -0.24269  -0.13972  -0.19147  -0.25389  -0.26081  -0.31703  -0.27578
  5.11278  -0.23941  -0.25469  -0.14942  -0.19896  -0.23960  -0.27282  -0.32921  -0.29229
  5.16291  -0.23907  -0.26667  -0.15482  -0.20672  -0.22244  -0.28397  -0.33994  -0.30933
  5.21303  -0.23702  -0.27855  -0.15754  -0.21461  -0.20544  -0.29427  -0.34807  -0.32677
  5.26316  -0.23532  -0.29035  -0.16037  -0.22265  -0.19162  -0.30387  -0.35398  -0.34452
  5.31328  -0.23601  -0.30218  -0.16574  -0.23096  -0.18302  -0.31305  -0.35926  -0.36252
  5.36341  -0.24023  -0.31422  -0.17438  -0.23970  -0.18073  -0.32211  -0.36557  -0.38085
  5.41353  -0.24795  -0.32665  -0.18489  -0.24897  -0.18518  -0.33139  -0.37380  -0.39958
  5.46366  -0.25812  -0.33959  -0.19438  -0.25871  -0.19605  -0.34121  -0.38395  -0.41883
  5.51378  -0.26896  -0.35307  -0.19993  -0.26873  -0.21156  -0.35182  -0.39540  -0.43865
  5.56391  -0.27840  -0.36702  -0.19994  -0.27876  -0.22798  -0.36325  -0.40729  -0.45907
  5.61404  -0.28469  -0.38129  -0.19465  -0.28851  -0.24051  -0.37530  -0.41891  -0.48006
  5.66416  -0.28720  -0.39569  -0.18569  -0.29782  -0.24550  -0.38761  -0.43042  -0.50164
  5.71429  -0.28699  -0.41007  -0.17510  -0.30660  -0.24246  -0.39976  -0.44341  -0.52386
  5.76441  -0.28664  -0.42444  -0.16451  -0.31484  -0.23424  -0.41150  -0.46118  -0.54698
  5.81454  -0.28943  -0.43895  -0.15501  -0.32261  -0.22517  -0.42279  -0.48812  -0.57145
  5.86466  -0.29804  -0.45389  -0.14737  -0.33000  -0.21879  -0.43376  -0.52797  -0.59791
  5.91479  -0.31347  -0.46960  -0.14217  -0.33713  -0.21674  -0.44462  -0.58150  -0.62706
  5.96491  -0.33443  -0.48637  -0.13952  -0.34412  -0.21905  -0.45560  -0.64473  -0.65938
  6.01504  -0.35768  -0.50429  -0.13901  -0.35109  -0.22501  -0.46688  -0.70900  -0.69492
  6.06516  -0.37923  -0.52330  -0.13991  -0.35810  -0.23373  -0.47859  -0.76404  -0.73322
  6.11529  -0.39624  -0.54317  -0.14180  -0.36521  -0.24412  -0.49083  -0.80280  -0.77346
  6.16541  -0.40849  -0.56364  -0.14479  -0.37247  -0.25489  -0.50361  -0.82577  -0.81485
  6.21554  -0.41834  -0.58461  -0.14905  -0.37994  -0.26442  -0.51686  -0.84156  -0.85703
  6.26566  -0.42917  -0.60612  -0.15395  -0.38765  -0.27079  -0.53044  -0.86275  -0.90028
  6.31579  -0.44302  -0.62833  -0.15781  -0.39556  -0.27205  -0.54407  -0.89920  -0.94535
  6.36591  -0.45933  -0.65135  -0.15857  -0.40351  -0.26686  -0.55745  -0.95256  -0.99310
  6.41604  -0.47523  -0.67517  -0.15519  -0.41129  -0.25531  -0.57025  -1.01520  -1.04398
  6.46617  -0.48714  -0.69959  -0.14844  -0.41873  -0.23927  -0.58224  -1.07370  -1.09780